ITEM: TIMESTEP energy, energy_weight, force_weight, nsims
1        -199946.1125786468619481    1    1   90
ITEM: NUMBER OF ATOMS
52        
ITEM: BOX BOUNDS xy xz yz pp pp pp
   -6.6599068561068142     10.6426540787132993     -5.7964044747763319
   -1.5903743695984427      8.9256853388485613     -0.8635023813304824
    0.0000000000000000     16.3996700907443120     -1.5903743695984427
ITEM: ATOMS id type x y z
1      1         -0.3501199053506944     1.3418492400831461     6.6353127467963162
2      1          1.2376353070789774     0.0118623022361338     9.4627690054616451
3      1         -0.7271263477004423     0.8089832572814577    12.1285122639317393
4      1          1.1444812201934078    -0.5300116229777775    14.8333427980367230
5      1         -1.9410689782693880     4.8187128007737039     1.1317259992800699
6      1         -0.4435060020951800     3.7133465271157911     3.9216541311330384
7      1         -2.5131073779385962     4.3390686024888447     6.6744330146588506
8      1         -0.6730659220422101     3.0105727004782610     9.3654100059495740
9      1         -2.5033629638641264     3.6253754127665547    12.4934531293524493
10     1         -1.0056158697743567     2.4101035147031777    15.0943868815448123
11     1         -3.9492994893679039     7.8141612255407056     1.3520257459132115
12     1         -2.3982880401449904     6.6328117230878183     4.1443452821376674
13     1         -4.3532903811342294     7.1506800777617840     7.0747745403415854
14     1         -2.6848564009300557     5.9783246822708183     9.7721147745059724
15     1         -4.6230561196598225     6.8116551392881490    12.1140137762803075
16     1         -3.0917005882548843     5.4787712710009107    15.1181668278182872
17     1          3.2204830881997628     1.8414015870876459     1.5638890606581572
18     1          5.0437879062919642     0.5083399864772935     3.9485779174213675
19     1          3.2219868952210846     1.3845124474884840     6.6049747970795369
20     1          4.8478832513380494    -0.0176614844436247     9.4938530052293419
21     1          2.9969788384235199     0.6928506159745381    12.4081384214612598
22     1          4.3190369989818906    -0.3755547843334113    15.1367765727403256
23     1          1.2890829611608854     4.8863287749319930     1.2383526219638827
24     1          3.0564712747235276     3.5383036026869696     3.9376628113982393
25     1          1.2646601985810542     4.1876811052807801     6.8811059070096077
26     1          2.9391807126528442     2.9332900036202760     9.8105656194269546
27     1          0.7740945086806197     3.7338134151745646    12.3339112305892726
28     1          2.4721640234323785     2.4872393429348758    14.8495547529948286
29     1         -0.6056830220082448     7.8889535413442706     1.5494225009689622
30     1          1.0779742105901207     6.5464210428692722     4.1097449494623621
31     1         -0.8520413071531159     7.2268346532874252     6.6162698458532745
32     1          0.8615388116529596     6.0719012825233127     9.5230372912439893
33     1         -1.1437756122279890     6.8268028288383817    12.4112439479214292
34     1          0.6885126701720546     5.5568000179098123    14.9956113447748649
35     1          6.9632650679664589     1.8029539349628863     1.3526291843994744
36     1          8.5069884276762693     0.6278942410705194     4.2041527409984045
37     1          6.4667533272322473     1.3947059815650755     6.8898467188044554
38     1          8.1883729069293825     0.1025834783993096     9.5176031520713984
39     1          6.3796804528872544     0.8205954571467418    12.2284063436453572
40     1          7.8353837420390677    -0.3146692246145004    14.7988605988216921
41     1          4.9629846194647413     4.9062635302868314     1.3697808857127292
42     1          6.7410783787651614     3.6151989069364889     4.2690292959968330
43     1          4.6288755229100635     4.2871792782626708     6.8086890315964101
44     1          6.2014553748888988     3.1047037830082562     9.5582751188986101
45     1          4.4919950274766922     3.6651778747555350    12.0708280145597051
46     1          5.8948852100282974     2.5897163947933985    14.9479939818958858
47     1          3.1837627388319780     7.7945542639314924     1.3489180909222274
48     1          4.8417967174704328     6.4573824703159408     4.2133777935538328
49     1          2.8212005065978598     7.2554080509579553     6.8134005345570570
50     1          4.6210691361433271     5.9046338811643997     9.6374915860026960
51     1          2.4191135856462163     6.8350093793984765    12.0751883099357542
52     1          4.0451898026171111     5.6001017845598735    14.8740775565229981
ITEM: TIMESTEP energy, energy_weight, force_weight, nsims
2        -199946.2877899693557993    1    1   90
ITEM: NUMBER OF ATOMS
52        
ITEM: BOX BOUNDS xy xz yz pp pp pp
   -4.9281341844185871     11.3334581123085005     -4.9281341844185871
    0.0000000000000000     10.5731894755415397      0.6908040335952012
    0.0000000000000000     16.4452632208175231      1.1402965286096594
ITEM: ATOMS id type x y z
1      1          0.4558770231962763     2.4840199400760650     6.9077742696000479
2      1          2.0677655180148382     1.8041565548737810     9.6302673524140641
3      1          0.5624770392448923     2.8557540115952182    12.5191029899475570
4      1          2.4635083528701607     2.0877662578249643    15.0767594535942386
5      1         -1.3823732740186625     5.2087873580667035     1.1253723347950779
6      1          0.2530620929490527     4.5642075639315776     4.1184602188874209
7      1         -1.3059803030416586     5.8400084928022284     6.6238325158416078
8      1          0.5877575997434679     4.7619693620222279     9.3572023911240709
9      1         -1.1994483999791463     6.1682556154903514    12.1953587742001375
10     1          0.6540262138953921     5.2472488456417663    14.9137554994592580
11     1         -3.1836978186420977     8.3398657664128280     1.2209284687062132
12     1         -1.4660255993427571     7.7048324329863069     4.0860309876441736
13     1         -2.8007580966434671     8.9522334394479124     7.0471951665620081
14     1         -1.1328019716074278     7.9590673464148338     9.3649310865160320
15     1         -2.5508132370740699     9.1982884089515391    12.3181835163917501
16     1         -0.7039136548893605     8.3700132126215987    14.8325775912084623
17     1          3.6562423023910471     2.2381458956917752     1.2974257376931888
18     1          5.7328763440496768     1.2347192198614099     4.1758134817176069
19     1          4.0175061308275621     2.5014291936180242     6.8851362801092160
20     1          5.6407056384009806     1.7453239631266537     9.8053624258478713
21     1          4.3307300830181736     2.9178240987130901    12.5749066823438813
22     1          5.9433209930059299     2.2017916536242987    14.8689211906218617
23     1          1.9400036485961087     5.2409462658963513     1.1821530228358292
24     1          3.7636171036565931     4.6151603345988255     4.3539598040757808
25     1          2.1696189103443482     5.8259037833517100     6.6877820956697809
26     1          4.2337606046453846     4.8295321229101233     9.4694132144029837
27     1          2.5201049229953503     6.0278183450638743    12.5658263698839239
28     1          4.4374290757497210     5.2685022258369560    14.9056968817908562
29     1          0.5448070406780046     8.4582993495315648     1.2839234024635251
30     1          2.1383156719026291     7.5767746977841890     4.2533281884345069
31     1          0.6796792672867225     8.8178497106614078     6.9673795180332885
32     1          2.3176912208068940     8.0365192614726695     9.5953136836233472
33     1          0.8223770374395183     9.3434009973147951    12.1135401781738050
34     1          2.6564160364355103     8.5164273975786813    15.2997879767331622
35     1          7.3245980736544860     2.1363914800451975     1.5970441209095727
36     1          9.0174622662963451     1.3460286103398567     4.2989873029630026
37     1          7.3276227159436553     2.6588617183427985     6.9835776375410905
38     1          9.2043217295487629     1.7377272366452681     9.7188951185199581
39     1          7.5238849640746155     2.9771984015528234    12.1667417416478845
40     1          9.5701640277699394     1.9899262103485371    15.0063104049201961
41     1          5.5464936716999871     5.2884657163578064     1.2412516809349241
42     1          7.5160349424261561     4.5995933244778913     4.3333268906133791
43     1          5.7947867913563691     5.6661224248717632     6.9811862331696046
44     1          7.6449951746941487     4.8522339683254270     9.8328428229445173
45     1          6.0564343133507190     5.9560166150564280    12.2832607112978618
46     1          7.7943520535039967     5.2047495351092401    14.8821617165611908
47     1          3.9218350562523767     8.4569030333164381     1.1937162664923513
48     1          5.9209958975450139     7.5191809109718246     4.0557281586858531
49     1          4.1418421298983539     8.9127843135743454     6.9420638367762537
50     1          6.0185826498543671     7.8716294290349405     9.3617627683967992
51     1          4.3093787904054581     9.3583901113192560    12.2965885070006351
52     1          6.4159133686982335     8.3763541059216955    15.0839155741967659
ITEM: TIMESTEP energy, energy_weight, force_weight, nsims
3        -199944.0403517823142465    1    1   90
ITEM: NUMBER OF ATOMS
52        
ITEM: BOX BOUNDS xy xz yz pp pp pp
   -5.2025034245272561     11.9644377434859646     -5.2025034245272561
    0.0000000000000000     11.1618418647360809      0.7292638990673665
    0.0000000000000000     17.3608377982202029      1.2037814663863884
ITEM: ATOMS id type x y z
1      1          0.3156510856415561     2.7611439653130860     6.9944046715257295
2      1          2.4223472980346430     1.6965741674807371     9.9748996769077056
3      1          0.5642540243317753     2.9782075239872534    12.9320109149672966
4      1          2.6093567666749906     2.2060151491777473    15.6989409948102558
5      1         -1.5983540306980610     5.6632826212693193     1.3281559643614846
6      1          0.2735000839294508     4.8300540410326240     4.2657505819359338
7      1         -1.1330953701442268     5.9226915501630994     7.0784853420252052
8      1          0.6658750482371570     5.1305140481191422    10.3549417908863948
9      1         -1.0058794967038749     6.3831842499721319    12.8666637733360041
10     1          0.9443747845273741     5.5115268811179874    16.0880757349812349
11     1         -3.3352680898671831     9.0055738183066474     1.4154903412063038
12     1         -1.5191449315775254     8.0680053020942228     4.2245276055833774
13     1         -3.0557347175832792     9.3901549425184800     7.0413452278477102
14     1         -1.0861233553354814     8.3912367595286081    10.3474602886233971
15     1         -2.7325302245661205     9.6968414829495746    12.9531465240034152
16     1         -0.9946701637592984     8.9303723056964159    15.8580321799646082
17     1          4.0060001037572821     2.3850757323231688     1.5631576015956508
18     1          5.9309449088692094     1.5024831687662525     4.5425414482844149
19     1          4.0881168658687539     2.7152651329194026     7.4229198195387776
20     1          6.1343127906270309     1.7673950858090299     9.9368281668185094
21     1          4.3312190634447454     3.2030334642705296    12.8597563884564536
22     1          6.1895741166981884     2.3025275395360718    15.7100087645643924
23     1          2.3736709073536995     5.5072934676134109     1.6836829290116513
24     1          4.2479653017402192     4.7316002126339844     4.0944040691520902
25     1          2.3690128042778036     6.0055150047093848     7.1916134309820405
26     1          4.2261173826823626     5.1101727658738216    10.3852958600618610
27     1          2.4797579128622376     6.4897026861562948    12.8065904223072806
28     1          4.7568950830273087     5.4588855975873489    16.1259382708369223
29     1          0.4488159836325276     8.8370720515402112     1.3809904928822476
30     1          2.2960538323669182     7.9997853265109118     4.3351614859467515
31     1          0.6518535512793227     9.4149588358148044     7.4450913116033535
32     1          2.6872547210078825     8.4365279923302285    10.2198073669204970
33     1          0.7118111800174469     9.8613659981750885    12.8389567111182821
34     1          3.0241571379761565     8.8009610792868660    16.0207579438576317
35     1          7.6558283438857275     2.3208554786284719     1.6911408374095762
36     1          9.4978710482344599     1.3317029087441676     4.1154160912759217
37     1          8.0937214915067113     2.5578367534940250     7.1215126872971748
38     1          9.6069589686768424     1.9540349172298959    10.2883767564103685
39     1          7.9122824220584267     3.1974147538309357    12.7886759376123553
40     1         10.1193177250212489     2.2777303873440560    15.6659286835032017
41     1          5.7484429919752422     5.6151106898939895     1.1884982594058238
42     1          7.8239323854980718     4.8340773567863105     4.2274217863656993
43     1          6.0529566497848259     6.0419967376995958     7.0514141906470789
44     1          8.2567101584676923     5.0021375812206612    10.3592201450863488
45     1          6.2518540558699538     6.4863725806288093    13.2740096067913989
46     1          8.4546548218108128     5.6183879901044067    15.9752667249615801
47     1          4.2934407913928876     8.9044887121936451     1.5474665578045357
48     1          5.8897769848684911     8.1918202884118685     4.3976447817651012
49     1          4.4071733327025528     9.3173364102806513     7.2981363612357422
50     1          6.4365378435245066     8.4294397211517840    10.2157604573017373
51     1          4.5785018692082451     9.6226073188073489    12.8389870460876629
52     1          6.5199747385626958     8.8110086952559286    15.9100937285248758
ITEM: TIMESTEP energy, energy_weight, force_weight, nsims
4        -199947.0350842962216120    1    1   90
ITEM: NUMBER OF ATOMS
52        
ITEM: BOX BOUNDS xy xz yz pp pp pp
   -6.7011014051951410     10.7084837284888987     -5.8322578694004656
   -1.6002115574830096      8.9808947570555144     -0.8688435357946754
    0.0000000000000000     16.5011094996102265     -1.6002115574830096
ITEM: ATOMS id type x y z
1      1         -0.4742733900929091     1.2666358642503437     6.7447620350529354
2      1          1.3319843862034473     0.1294505764002109     9.6468842730363047
3      1         -0.7000649820532160     0.7498369435748595    12.5019384416394725
4      1          0.8589928016128383    -0.4040503663465975    15.0757332142655081
5      1         -2.2471046344307877     4.8314526177712489     1.3047227283274603
6      1         -0.4007307363907658     3.5626964737426641     3.9716009957633851
7      1         -2.4012200614028267     4.3913960457359797     6.8732017305891775
8      1         -0.5723930848003072     3.0115104701182562     9.8372479174292788
9      1         -2.6886229144949949     3.7449645044369007    12.4066918331164278
10     1         -1.1468454110216026     2.6614576329725637    15.0680070432554025
11     1         -3.9344714701315953     7.7564995777205663     1.3562551645740675
12     1         -2.4211817459211029     6.5464055784050164     4.0844973271677256
13     1         -4.2954844403733965     7.2799720518028108     6.6769762622032278
14     1         -2.6425957097332033     6.0708332492358421     9.7458456545647625
15     1         -4.6918429028578199     6.8738463813096322    12.2658153045779201
16     1         -2.7599189283109009     5.4600845174168340    15.1179771117260238
17     1          3.5266966931442298     1.7877695791391204     1.3905405169275704
18     1          5.1070033210727246     0.5484092937936106     4.0112116770750657
19     1          3.0367867751109809     1.2271322677759482     6.7441120300906157
20     1          4.9253520990412492    -0.0719706482908010     9.7078401749639820
21     1          2.7092003368276587     0.8281448725361804    12.1786043422447339
22     1          4.6887149547607283    -0.5243955190324743    14.9815692334474164
23     1          1.5238247305025803     4.9171558255954642     1.2334609816594850
24     1          3.0346750621197236     3.7181226191230703     3.9540326573584261
25     1          1.0726366896315476     4.4354710939140674     6.8537197861419372
26     1          2.9224437275549229     3.1018847185448379     9.4689017775302098
27     1          1.0622162641153550     3.6834688949293075    12.3782019121567846
28     1          2.4069962175259736     2.5988076489190397    15.0889100034934156
29     1         -0.3461206819205910     7.7886368082381345     1.5708189113450537
30     1          1.3161893727039262     6.4876588366705263     4.2152040087092875
31     1         -0.8587454356387103     7.2878374331013855     6.6959163573738065
32     1          0.7973654777553848     6.2080025007075479     9.3789387348788011
33     1         -1.1910511027011779     6.7788535638509533    12.3139049633058182
34     1          0.6580556003863541     5.5645061547984476    15.3026823933168661
35     1          7.0819122201541722     1.9073886966282056     1.4491512609187085
36     1          8.7506420107739178     0.6379054465544566     4.2112290195492728
37     1          6.6369554459647464     1.3718167331283073     6.6841145374566393
38     1          8.5261986169150283     0.0795051374421658     9.3972684464768559
39     1          6.4106616261175731     0.9047190979818588    12.4470585333793409
40     1          8.0660165205604368    -0.5850194579645683    15.1643448462703816
41     1          5.0652520138637200     4.9971224986863270     1.2997668420579156
42     1          6.6480280181400042     3.4426682921751501     4.3269866578058647
43     1          4.7428688278240703     4.1927890105688155     6.8860690446373285
44     1          6.3611466682054134     3.1302675546671979     9.8702975107605138
45     1          4.3803716617375006     3.8298624342847334    12.4362718777196353
46     1          6.2225285588852435     2.4303192950866226    14.9518928124906534
47     1          3.0252441005000432     7.7900074941553807     1.3968810101432088
48     1          4.7370294916469247     6.6625005338990562     4.0882763510755087
49     1          2.8148877169859805     7.4195774833227475     7.0070984694334566
50     1          4.3956569514115458     6.0086844222208118     9.5377787448718490
51     1          2.4265284918467374     6.6482839509011145    12.4074125140713551
52     1          4.2743598145222066     5.5002980863624282    14.9969873083196941
ITEM: TIMESTEP energy, energy_weight, force_weight, nsims
5        -199946.4243119927996304    1    1   90
ITEM: NUMBER OF ATOMS
52        
ITEM: BOX BOUNDS xy xz yz pp pp pp
   -6.4302624347341997     10.7084837284888987     -5.7351854644017131
   -1.2638902090223603      9.0431860069041363     -0.6950769703324866
    0.0000000000000000     16.5384928163063805     -1.2638902090223603
ITEM: ATOMS id type x y z
1      1         -0.5434169986793890     1.5721414090855221     7.0068885831523779
2      1          1.2402747898559228     0.1428308268189578     9.8357744300682377
3      1         -0.6662711491028508     1.1843111830424669    12.2158827158003493
4      1          0.9875053148384336    -0.1378974283652430    14.9632116797916659
5      1         -2.0500042829242209     4.8798014218053760     1.2443097465248172
6      1         -0.1273891932824768     3.5524570216014828     4.3783756003705108
7      1         -2.3386418241902831     4.5490356347030652     6.9814195254525400
8      1         -0.5479220577839643     3.3092127428604847     9.3993951513453329
9      1         -2.5654325176824586     4.1276889254382123    12.4113307482676110
10     1         -0.7780998446794604     2.8517388220408288    15.1742480520224898
11     1         -4.0150313932210171     7.8880800715343735     1.4584280203726985
12     1         -2.3543511698199766     6.8026081933058604     3.9483271772278874
13     1         -4.3038638288909388     7.6096605654420362     6.9166203487147078
14     1         -2.3950423371398615     6.1960143531735046     9.8674822503882940
15     1         -4.5295044312306745     7.0036342749472897    12.6408317589914656
16     1         -2.6180079602442201     5.8800059274974243    14.9496011969727558
17     1          3.3463497644308839     1.8815833925392929     1.4327640682690022
18     1          5.1234654731085314     0.5404154106902936     4.3701161468707266
19     1          3.2665265850219822     1.6008861919579047     6.9758553973072175
20     1          4.9501540182048016     0.3415963475453045     9.5127530183983708
21     1          2.7598300478959543     1.1312934801027184    12.6018635867034945
22     1          4.7539060620030238    -0.1545630415918902    15.2575397093110485
23     1          1.4901583285085840     4.8172542391956448     1.2227878359273003
24     1          3.0503758409624337     3.8024037403081419     4.3582490052028158
25     1          1.3383302336609499     4.5766603101774477     6.6912806547677430
26     1          2.9496250718029460     3.3672163158242174     9.7697726906076969
27     1          1.0535509590822618     4.1513332575107160    12.3150239998554465
28     1          2.6790473883449799     2.8336479096299199    15.2129752834265677
29     1         -0.2424422133097344     7.8941721279275114     1.3682550914402121
30     1          1.3153969449080181     6.8269346557918684     4.0655326024845708
31     1         -0.5834089020118037     7.5390295484656686     6.6789219936966946
32     1          0.9136778154691126     6.3599366095440946     9.8292561760227084
33     1         -0.8905892537021176     7.0158537257298690    12.2482694539887902
34     1          0.8605894365367560     5.8920786720529232    15.3882517450944736
35     1          7.1483572908410720     1.7867736901523708     1.2766172419336683
36     1          8.8055122813986948     0.5624138488137284     4.2458184928406650
37     1          6.7920025110211641     1.4622712951828531     6.7486235142854287
38     1          8.4841678182807083     0.1578044996165038     9.4517767703516089
39     1          6.5879277240622329     1.0791752897961628    12.3576651820622878
40     1          8.1357405289650000    -0.0240169873062549    14.9683046346529363
41     1          5.0452614164393763     4.8911267141966261     1.4010744523712848
42     1          6.8850699431054609     3.7070746764603886     4.0545371313921592
43     1          4.7882813656198451     4.5904046490429629     7.0497289431565706
44     1          6.4287996558568876     3.3404643817737063     9.5847632880789675
45     1          4.7915752952147290     3.9623831329699017    12.2015451269362760
46     1          6.5748697990037126     2.7439193827721660    15.0306194431657580
47     1          3.1009230967060200     7.9694570519322792     1.4718125541849367
48     1          4.7657389365230030     6.8084218291220555     4.0087990556910373
49     1          2.9280635398156338     7.5637168868533271     6.8759163312143485
50     1          4.6301909494877904     6.2465712465524463     9.6567425031567513
51     1          2.7022933648227832     7.0301431264171654    12.5800953809802216
52     1          4.5047132205508493     5.8393104767840489    15.0979929393919186
ITEM: TIMESTEP energy, energy_weight, force_weight, nsims
6        -199948.5930808091070503    1    1   90
ITEM: NUMBER OF ATOMS
52        
ITEM: BOX BOUNDS xy xz yz pp pp pp
   -6.1594234642732584     10.7084837284888987     -5.6381130594029623
   -0.9360285627072141      9.1040209029656793     -0.5213104048702960
    0.0000000000000000     16.5666668369960348     -0.9360285627072141
ITEM: ATOMS id type x y z
1      1         -0.4154366970950997     1.7154262756145680     6.8661705401730515
2      1          1.5877126152751180     0.4548953179378356     9.6175987117356332
3      1         -0.3969784836923033     1.2966838695924836    12.5923266110949026
4      1          1.2567765632815240     0.0359826470244684    14.9894228354138885
5      1         -2.1373191175495734     5.0372568248523306     1.3173298262210102
6      1         -0.1675652825350214     3.8723301390551748     4.0624624801996134
7      1         -1.9403858183891711     4.5670023287027233     6.6676555979659513
8      1         -0.4309040309925290     3.4352226834387318     9.6061706179005899
9      1         -2.3818152180384318     4.2230908069753204    12.4633140116791878
10     1         -0.6654144704045717     3.2000975770606739    15.1769615817992864
11     1         -3.9186850234190573     8.1053145141472456     1.5552798306066435
12     1         -1.9450868427459778     6.7943144726581455     4.0740340677166182
13     1         -3.8937181936060856     7.6873463314987314     6.9935490249717995
14     1         -2.4294829625074277     6.4953485988359549     9.5325412254802462
15     1         -4.2150990655687481     7.4081054847044179    12.5295256374208073
16     1         -2.5777194319125263     6.2245342578875897    15.1926120307684727
17     1          3.3689296732207756     2.0488156412303584     1.4281165863308380
18     1          5.2523452873260128     0.8962540415944883     4.1768740620515343
19     1          3.2456375458128188     1.5994491134415416     7.0235327794115685
20     1          5.1024018856145936     0.3865848293854320     9.8211819792914277
21     1          3.2186296790011970     1.2889095104056008    12.5093454998344686
22     1          4.8962517945090802     0.1333109847843311    15.2854824267521678
23     1          1.6277023769107868     5.0384401123043290     1.4598907992500101
24     1          3.3716142900915078     3.7384473212397422     4.3714225818856027
25     1          1.3175290040183603     4.7527120660672972     6.9635824041059964
26     1          3.3066662654298500     3.4000164014845788     9.7614875367469658
27     1          1.3427614042277987     4.3605877380491176    12.6352376470917029
28     1          2.9064591738934071     3.0489194871753589    15.4165007251702288
29     1         -0.1155327600982939     7.9786599228485438     1.2063096211659015
30     1          1.3029676078443608     6.8994075319695352     4.2062131657708486
31     1         -0.3756043501702395     7.7282998566699641     7.0819422039086115
32     1          1.3265027133828338     6.4824502301849893     9.6088498805294584
33     1         -0.4958531265025599     7.3676798877809988    12.4583099372328636
34     1          1.0746659472980962     6.1856067778377861    15.1495521468478476
35     1          7.1851066653005002     1.9067215580919206     1.2339075254309633
36     1          8.8670678584151688     0.7414500591187071     4.2139746747772575
37     1          6.8233076923530289     1.7111332444878167     6.6714688890216660
38     1          8.4973949373821380     0.3478575979813520     9.8771862783430517
39     1          6.7165430387316221     1.2617892045148298    12.5188899713816717
40     1          8.5000442162565655     0.1287952171960274    15.0685049877487778
41     1          5.2267927034530928     4.8534628352267850     1.4906573438503317
42     1          7.0858186750183245     3.7248614679334082     4.1277178383442790
43     1          5.1788176255010896     4.5816376134144496     6.6822844575874392
44     1          6.5198977977835160     3.5655138758116296     9.8713233835017036
45     1          4.7298708702744303     4.4525072206777203    12.6687691221907208
46     1          6.5779549131658905     3.2199939398282065    15.3474138715475092
47     1          3.3620248429126462     7.8887761229767257     1.1995043797564469
48     1          5.0131616656148585     6.9300627083390802     4.3814853440452630
49     1          3.0478250801383076     7.7865818502106379     7.1268792850268419
50     1          4.7608451594590839     6.4438675633112448     9.7104027151202086
51     1          3.0131210260710208     7.4844066438150199    12.2248574960131950
52     1          4.5836422415684224     6.1433371800163217    15.3467563706465810
ITEM: TIMESTEP energy, energy_weight, force_weight, nsims
7        -199947.9445167744997889    1    1   90
ITEM: NUMBER OF ATOMS
52        
ITEM: BOX BOUNDS xy xz yz pp pp pp
   -5.8885737853285880     10.7084837284888987     -5.5410406544042097
   -0.6162839470582625      9.1634315706913370     -0.3475331309243785
    0.0000000000000000     16.5861884028330770     -0.6162839470582625
ITEM: ATOMS id type x y z
1      1         -0.0965069970578877     1.8684612165784027     6.7749471089868001
2      1          1.5526144890066227     0.5816848361315170     9.5009908198709994
3      1         -0.4358888301681406     1.7013531862985876    12.6423352301069460
4      1          1.3577693441732759     0.3360407861869644    15.3604054040069116
5      1         -1.8950910739144087     5.0533987932246553     1.6169499883990111
6      1         -0.1741006701545182     3.9537820788391795     4.0021565832342558
7      1         -2.2158637040012938     4.9640686219616006     6.6652408348851777
8      1         -0.2225972512640987     3.8239138715735579     9.7808142081801428
9      1         -1.9841856585354367     4.5241694646371409    12.6148369147405610
10     1         -0.3929563772038829     3.4645446535840803    15.2162981259275192
11     1         -3.7576786871677355     8.1121572352497502     1.4907173113592112
12     1         -1.8838439534543772     6.9618454880452356     4.1258888293234532
13     1         -3.9171462143072739     7.8634644799876963     7.0766693465207027
14     1         -2.0901171921227673     6.8666074463091737     9.7233867516410033