ITEM: TIMESTEP energy, energy_weight, force_weight, nsims
1        -199946.1301659164309967    1    1   89
ITEM: NUMBER OF ATOMS
52        
ITEM: BOX BOUNDS xy xz yz pp pp pp
   -6.6599068561068142     10.6426540787132993     -5.7964044747763319
   -1.5903743695984427      8.9256853388485613     -0.8635023813304824
    0.0000000000000000     16.3996700907443120     -1.5903743695984427
ITEM: ATOMS id type x y z
1      1          1.5747296681027347     0.4423406314735609     4.2858670390147653
2      1         -0.5898584596586059     1.3695361046689187     6.8299690184267980
3      1          1.3853223534638741    -0.0501790497157253     9.4384569264842302
4      1         -0.5266485442889040     0.6904464404181567    12.2490360643115359
5      1          0.7869976624856517    -0.4021624837956024    15.1125432494030978
6      1         -2.1421523486980050     4.6919215414069528     1.5661921310007909
7      1         -0.2722497339875649     3.5488398302248960     4.0299314294644599
8      1         -2.5910680118613949     4.4261287056489440     6.6886696930199454
9      1         -0.6861819289288164     3.1020793045124457     9.5768518715930036
10     1         -2.7500479784892140     3.6410275641201184    12.3826088228572431
11     1         -1.0869789602061197     2.6106324028542933    14.9880582531752022
12     1         -3.9803845534010098     7.8019753866205779     1.3201265188430842
13     1         -2.2805153658445407     6.5251634056124495     3.9629901995747612
14     1         -4.4334263735507173     7.3294362241986688     6.9940702301972939
15     1         -2.5392372222326536     5.9306583631830767     9.7139186134727513
16     1         -4.6061704846985361     6.7484995014542486    12.2609079449363385
17     1         -2.8474740267219794     5.3983287701469562    14.9286892716625079
18     1          4.9186984073123989     0.6759362458472391     3.9202801644914769
19     1          2.9744462112080683     1.2915680208882649     6.7487421539672425
20     1          4.6374875585905579     0.1088041097083176     9.6159508541473802
21     1          2.8864495544890429     0.6759287959893840    12.3904013741736758
22     1          4.4290118006388663    -0.5754089282159368    15.2699172395304377
23     1          1.3728331989025040     4.8778401940388116     1.5994738388357430
24     1          3.2613902576821125     3.4877031038697273     4.1476913325800142
25     1          0.9621321137395499     4.3654985696279223     6.7786054413121120
26     1          2.9975726985211120     2.9160116547234849     9.5907650132701043
27     1          0.9191443053848112     3.7926449426562838    12.0843250284623291
28     1          2.6625887758011637     2.5745005922570621    14.7936616623042401
29     1         -0.4408102178170419     7.7352321100967432     1.2233858575329883
30     1          1.2636842672020361     6.6389514702258277     3.9517632637871265
31     1         -0.6720399701890222     7.2990844390315859     6.8553421700158585
32     1          0.8138267291526801     5.9949612791266622     9.4756934445748335
33     1         -0.9057664892078684     6.6769233957132696    12.2658716787986517
34     1          0.6165215009220063     5.3634570497926441    15.2532018870344110
35     1          6.9616814410395458     1.8348403908481192     1.1600993150539196
36     1          8.7649131492738874     0.5316548487675308     3.9753484494909630
37     1          6.7614430973447792     1.3582048708713126     6.8144701212919685
38     1          8.2975239671606662     0.1296690330296350     9.4622773148432078
39     1          6.2747194055667599     0.7250297448469356    12.3366165932560818
40     1          8.1263081411385496    -0.5096660611755012    15.0360215023117387
41     1          4.8233519336866149     4.9264909586288335     1.5510646624933075
42     1          6.7431387965948009     3.5494304975262647     3.8586932538687790
43     1          4.6459782680145558     4.1580040643822880     7.0302084263869737
44     1          6.4442866844720834     2.9942500619177381     9.7412010572035328
45     1          4.2363861474066038     3.8464978365599807    12.0856255607907475
46     1          6.1370662534472746     2.4258567712704893    15.1979941832664931
47     1          3.0162335281827284     7.8607994642444430     1.3780161714388373
48     1          4.6637429862027435     6.4551996619643957     4.1305577237786943
49     1          2.6886643425594197     7.3572678288799116     6.8584923956231574
50     1          4.4121538365781854     5.9133491505894584     9.5557655810668489
51     1          2.5307316130929456     6.8775289109737532    12.1316241759843546
52     1          4.2541764079645805     5.5038411069487276    15.0732186425822512
ITEM: TIMESTEP energy, energy_weight, force_weight, nsims
2        -199947.9927657091466244    1    1   89
ITEM: NUMBER OF ATOMS
52        
ITEM: BOX BOUNDS xy xz yz pp pp pp
   -4.9281341844185871     11.3334581123085005     -4.9281341844185871
    0.0000000000000000     10.5731894755415397      0.6908040335952012
    0.0000000000000000     16.4452632208175231      1.1402965286096594
ITEM: ATOMS id type x y z
1      1          1.8585969232826229     1.2863967552714182     4.0352963913855397
2      1          0.5363429378892040     2.4973424144517984     7.0308810421247472
3      1          2.2838571592252568     1.6480288195390567     9.3729481978335265
4      1          0.5846137597286160     3.0339003339533921    12.1105687491550285
5      1          2.4050525110774204     2.0768319950244942    15.1498393663565398
6      1         -1.4600093069920603     5.3528825087000342     1.3197604115427766
7      1          0.3915964568262559     4.5423762876199127     4.1965102511044803
8      1         -1.3830480182872529     5.7065432250627177     6.7146345761757820
9      1          0.5089306537786621     4.9536595259609726     9.4375469795605014
10     1         -1.1016009026448641     6.1278859000389758    12.5770256347709548
11     1          0.7621789931740923     5.2421893278927456    14.9310157558441148
12     1         -2.9325237325266089     8.3976255786288192     1.4501084459026334
13     1         -1.1499270662854855     7.5471561914831300     4.0845921008127313
14     1         -2.8549621981317621     8.8600361271640189     7.0391865693677751
15     1         -1.0459376932823778     8.0241971965803351     9.7371174708335317
16     1         -2.7074273417001913     9.3315642374484504    12.1752909856693154
17     1         -0.6899217575720762     8.3790094481143349    15.0490140544110336
18     1          5.3478517261170264     1.4271373413391386     4.1551975965017309
19     1          3.8925475364931659     2.6833866504017858     6.6818349805705965
20     1          5.5847135710274625     1.7946696930280157     9.4847992994045800
21     1          4.1884665331517885     3.0016094572131684    12.3805068986766962
22     1          5.9017710072172260     2.1517796935776090    15.2798617355015871
23     1          1.9566455667789928     5.3453209029771092     1.4203718061413007
24     1          3.8493032401751299     4.5366324472136315     3.9336739446495375
25     1          2.1987861681124699     5.8366134861511192     6.7748581628109976
26     1          4.3018256988057955     4.7379382491124939     9.6902546721287326
27     1          2.3682289279650726     6.1902582385326843    12.2117729395857353
28     1          4.4232860527445190     5.1240281967184229    14.8377935559724428
29     1          0.3374849464284460     8.3779036763555563     1.4837594538341168
30     1          2.1589709349385955     7.6284288193552250     4.0955678699641087
31     1          0.6818163122257281     8.8365829103707583     6.6946019084034205
32     1          2.5943544634409017     7.8938640619361884     9.7163696167070785
33     1          0.7836079771615815     9.1397889322770762    12.4443298309213315
34     1          2.6816965969340858     8.3444750998943178    15.1074486108956147
35     1          7.3297938173757125     2.0882504985855457     1.4972511464097018
36     1          9.0098846965923016     1.3118603694201476     4.1899692759077034
37     1          7.4103725442018753     2.4923318529115401     6.8469483087439773
38     1          9.3343377131013625     1.7329848699877934     9.5928296881613750
39     1          7.6979508928590112     2.8576792677180580    12.4675680661022010
40     1          9.6614599072533665     2.1416340514443717    15.0165550237363661
41     1          5.7262523561510852     5.2584662030407294     1.5997420337185266
42     1          7.6281233751831650     4.3924127775275803     3.9862656840449069
43     1          6.0064681167165670     5.6338677331554079     6.8223978343152014
44     1          7.6089485053295478     4.7436778324571431     9.8163743800231167
45     1          5.9298835779661463     6.1972195985655700    12.1086349789089258
46     1          8.0974654843198302     5.1163356863503298    15.2284821944057818
47     1          3.9909888939250400     8.4221441250953610     1.3166272141820032
48     1          5.7596255908111154     7.5737234488598224     4.1991251512116206
49     1          4.1598516291303520     8.7489108546011334     6.7880518610723781
50     1          6.0740212992157918     7.9687585472189104     9.4098452152590184
51     1          4.3990655005921839     9.2152070361404697    12.2692964848811812
52     1          6.0420135170740625     8.5053260451091752    14.9671667232186874
ITEM: TIMESTEP energy, energy_weight, force_weight, nsims
3        -199945.2318990903149825    1    1   89
ITEM: NUMBER OF ATOMS
52        
ITEM: BOX BOUNDS xy xz yz pp pp pp
   -5.2025034245272561     11.9644377434859646     -5.2025034245272561
    0.0000000000000000     11.1618418647360809      0.7292638990673665
    0.0000000000000000     17.3608377982202029      1.2037814663863884
ITEM: ATOMS id type x y z
1      1          2.2803650356105720     1.2690522088355363     4.4607460121448943
2      1          0.4342596923996988     2.6085714280232657     7.2857765464894975
3      1          2.3075047215491495     1.7943628735877877    10.1587913848062286
4      1          0.6523636281718593     3.0632622840590398    12.8236218223380352
5      1          2.7416632973842483     2.1354267989480342    15.7257908132636466
6      1         -1.4970430975907851     5.6563831010114614     1.3870889452449979
7      1          0.5182201465390390     4.6427625695287817     4.1274062688026847
8      1         -1.4473195887075416     6.1607940953783249     7.2446187341452388
9      1          0.6395622710935288     5.2521134581546693     9.9802891898008745
10     1         -0.9762444786544521     6.4255801784740454    13.2531672357926169
11     1          1.0008214214391178     5.4198444919953781    16.0965391914382323
12     1         -3.1768105685176566     8.9071143723210859     1.5223739205404112
13     1         -1.2957795638940237     7.9128048576421932     4.4298593957292027
14     1         -2.9900426561149636     9.3341970356689696     7.3605544930457940
15     1         -1.0648259597960015     8.3549392833894434     9.9007699998822325
16     1         -2.7771653232152271     9.8262527093591263    13.2425050558142630
17     1         -0.9324823530130572     8.9417737601137315    16.0425126109725760
18     1          5.8698480335032617     1.4134084634929329     4.3041816175881520
19     1          4.1042022642618070     2.7409757047449701     7.0879195175023630
20     1          6.0108595769071744     1.6961719482571067    10.1325134367015171
21     1          4.4449695810325611     3.2464102234490606    12.8518142440658352
22     1          6.4681176701663983     2.2816379808071447    16.0931371807981449
23     1          2.0695100340028305     5.5697363168059200     1.4670193425263451
24     1          4.1873931089928043     4.7854335481095163     4.3382444176496602
25     1          2.2431631279769331     6.0784762236550387     7.1007669387934564
26     1          4.2447408068468704     5.0551496254881663    10.1526682150610199
27     1          2.7735711911023975     6.3495584981731712    13.1437063075785989
28     1          4.6908659663436598     5.5139694079117643    16.0346693361117900
29     1          0.3763075421928032     8.9218931199960334     1.4805116627961075
30     1          2.5346001669489979     8.0573914333633994     4.3449270990523203
31     1          0.5386895097661852     9.3701832974926429     7.0542128724517230
32     1          2.6397636411675252     8.4705986570134275    10.2802604668251600
33     1          1.0761712383440953     9.7492142458253319    13.0467827098575686
34     1          2.9956220434461023     8.7375654873523487    16.0112777041677070
35     1          7.6280673528335550     2.3466682905360239     1.1953696917290701
36     1          9.5870457465549954     1.3374047594702101     4.2819741729672742
37     1          7.9701637906701031     2.7039310895451534     7.1868014060244754
38     1          9.9271625467601563     1.7353523700047482     9.8962366072360091
39     1          7.9597577726554025     3.1859346531967088    13.1913951264786196
40     1         10.0736591020349149     2.1962158305506456    15.9650708046977687
41     1          6.0435325859641287     5.5603706758892129     1.4352170594423339
42     1          7.9666370696003401     4.7004945103283271     4.2360885994692836
43     1          6.1610985685895097     6.1727528144183248     7.2651420262068376
44     1          8.1766606683435956     5.2682381796561781    10.2333109223641028
45     1          6.5473784510866180     6.3091927655849434    12.8121080161822753
46     1          8.2215620406128131     5.4610596037262438    15.8910703321715054
47     1          4.1588310500455234     9.0638574061419543     1.4517058005764025
48     1          6.1039407451734133     8.1013153455081550     4.2203278976003338
49     1          4.5541541239700054     9.2942930687257483     7.3341439698897197
50     1          6.3957294450868094     8.4678224455564717    10.1592048392037029
51     1          4.7232592195718874     9.6471977438006284    13.2269162521051307
52     1          6.4608103130979879     8.8919086880400506    15.8818136724410905
ITEM: TIMESTEP energy, energy_weight, force_weight, nsims
4        -199946.4635287847777363    1    1   89
ITEM: NUMBER OF ATOMS
52        
ITEM: BOX BOUNDS xy xz yz pp pp pp
   -6.7011014051951410     10.7084837284888987     -5.8322578694004656
   -1.6002115574830096      8.9808947570555144     -0.8688435357946754
    0.0000000000000000     16.5011094996102265     -1.6002115574830096
ITEM: ATOMS id type x y z
1      1          1.4666457107859410     0.4869404554953387     3.8948897017259823
2      1         -0.5865614796214709     1.3683910891835638     6.7784337912887960
3      1          1.1029748948827294     0.1503246237321543     9.8420303262624227
4      1         -0.5899400062378091     0.7442824530648924    12.1595132574535842
5      1          0.9154211566201106    -0.3344345136276911    14.9180390120314090
6      1         -2.0512561046720812     4.9380330854725258     1.1340926777493454
7      1         -0.5023264049164314     3.5755230955526476     4.0266426021278185
8      1         -2.3533949022230223     4.3152308843687299     6.6361662307139566
9      1         -0.6016165368953534     3.0858937397930859     9.7034486257869279
10     1         -2.5894259463245106     3.8195180390030128    12.3469738319077642
11     1         -1.0897852554743497     2.5145661491237634    14.9995637695047677
12     1         -3.9990971694330262     7.7748978236144834     1.1760656505715303
13     1         -2.2882926753956743     6.5644643653647412     3.9901770024871950
14     1         -4.5443742317360538     7.4100383660174103     6.7371397363349974
15     1         -2.6179661971576791     5.9000746968529860     9.8385286520832071
16     1         -4.5550934239482714     6.7291147986288680    12.5660587005089184
17     1         -2.8828823052683927     5.5696922734681547    15.2459756177326540
18     1          5.1197946048864047     0.6100901600697066     4.3096335599238484
19     1          3.0312686934456909     1.4167120511599971     7.1034491226289092
20     1          4.7729853674620717    -0.0359676551472485     9.4101357605250069
21     1          2.9460966264144086     0.6579453030039507    12.5503525674243459
22     1          4.4569351786994504    -0.5401851782901311    15.3432364920450262
23     1          1.5394302038401071     4.7700469595269750     1.3691214077738467
24     1          3.2017113455585573     3.7216831899627927     4.0514659382588283
25     1          1.2513580705149085     4.3151591375277487     6.9945674017743791
26     1          2.7323852749482103     3.0599759966250244     9.5828753823976349
27     1          1.0133920034036827     3.7414167837776522    12.3935182564336426
28     1          2.6879257922042696     2.5672433222809459    15.1363464447138742
29     1         -0.4067970924229549     7.7979242761758529     1.5300281551264938
30     1          1.1784547132913563     6.6280952465277947     4.0002751026431600
31     1         -0.8150441135427471     7.2898988162191198     6.7183163636370598
32     1          1.1257411312894967     5.9204518705399263     9.6779624345131250
33     1         -1.0872644784046632     6.7149528288979417    12.3139403013021234
34     1          0.5176298990128150     5.5682648325871469    15.0086734766125929
35     1          6.8964916118502675     1.7471523003569618     1.2940870622883249
36     1          8.4676788950355810     0.7083951115456075     3.9068949828339909
37     1          6.7020897982432803     1.3518646862453869     6.9391702737501602
38     1          8.4758419721818079    -0.0154137914787869     9.4577703086944460
39     1          6.3721774772941302     0.7011775935126061    12.2486924390960681
40     1          8.0252600314898075    -0.4261259055528773    15.0147569662187479
41     1          4.9557556260431754     4.8105882080746607     1.1686971429179571
42     1          6.7934556522631198     3.6299500349510661     4.0388342108527029
43     1          4.7326250922893971     4.1878888084146588     6.9455214754495271
44     1          6.3688953270313480     3.1328922040290506     9.6404752455248044
45     1          4.4952565585702207     3.8974351083082439    12.3955571517355452
46     1          6.1999197371892851     2.5770608601632246    15.1601556874357968
47     1          3.2403389880639626     7.7611663349294417     1.3189917828956716
48     1          4.7917048678678436     6.6971885252407510     4.2664665911659370
49     1          2.8386102209897013     7.3991060749789961     6.7057274701658471
50     1          4.6114532446596810     5.9991870680020147     9.4042364568389836
51     1          2.2654289917869779     6.8994953415361095    12.4424463894374817
52     1          4.1903967353038700     5.4504415278193301    15.0312972901857727
ITEM: TIMESTEP energy, energy_weight, force_weight, nsims
5        -199947.6759745810413733    1    1   89
ITEM: NUMBER OF ATOMS
52        
ITEM: BOX BOUNDS xy xz yz pp pp pp
   -6.4302624347341997     10.7084837284888987     -5.7351854644017131
   -1.2638902090223603      9.0431860069041363     -0.6950769703324866
    0.0000000000000000     16.5384928163063805     -1.2638902090223603
ITEM: ATOMS id type x y z
1      1          1.4912848609968210     0.6825919491534407     4.1461385720540260
2      1         -0.4112668135312261     1.6031274776022775     6.7703060521388725
3      1          1.2083303120454674     0.3663672121060450     9.7975911896375649
4      1         -0.7556034620626509     1.1170854638917593    12.4626500856880220
5      1          0.9402519886897307    -0.0366401479253976    14.9741514667686904
6      1         -2.0939358374203465     4.9110573441120895     1.3664346492063688
7      1         -0.3458090650440920     3.7344991032890484     4.3044367327704132
8      1         -2.1475403652684162     4.4572660708466607     6.8265844883739470
9      1         -0.6038481849043704     3.3109003998960942     9.5001716208657694
10     1         -2.5477110479601821     4.0995406051095058    12.4326063637393727
11     1         -0.6692331157021508     2.7949410243449240    15.1667360506869535
12     1         -3.9397625319418426     8.0209948424207518     1.3558953595207901
13     1         -2.1047492642893744     6.6344667943462454     4.1770453977911908
14     1         -4.0287521734223306     7.4412011245156853     6.9735766319697952
15     1         -2.3594944545547696     6.2058575914167315     9.6726992147605735
16     1         -4.4618739313950302     7.1578696369370887    12.3797375087234496
17     1         -2.7426675610243052     5.9741506330448075    14.9249695427004880
18     1          5.1210657019049766     0.6524936139377769     3.8900098456909098
19     1          3.0577539862513623     1.4651004765839197     6.8403855822032229
20     1          4.8953822656303272     0.2682518007921383     9.5731188828726079
21     1          2.7623229829079463     1.1538873099214570    12.3621466825026616
22     1          4.4970748591073182    -0.0196704137608613    14.9692566188563987
23     1          1.5492124037260817     4.8489952558152591     1.3750838915138692
24     1          3.1104472221341379     3.6334592050688914     4.3773261689651184
25     1          1.3025050013472903     4.5041767255160519     7.0154692911640160
26     1          3.0230756325450243     3.3555301475313173     9.8101436742641006
27     1          1.0843464165886503     3.9324818338548426    12.5821846061556499
28     1          2.8894391098553469     2.8663130683953022    14.9745701684824741
29     1         -0.4217514899497896     8.0209948424207518     1.3394042945789171
30     1          1.4393754861229711     6.6696837847841275     4.0161643507994924
31     1         -0.5043224662834218     7.4175749968655200     7.1320504118193293
32     1          1.1622003058398829     6.1531482928083641     9.7899945912805766
33     1         -1.0079895733626600     7.0860788911729262    12.3617440435144683
34     1          0.7478312445725137     5.8033567426656472    15.1475935651739082
35     1          7.0584210193989847     1.7952751553844180     1.4230953783105493
36     1          8.8548580452679442     0.5764366082561846     3.9594040327966362
37     1          6.8515523890352910     1.5440327101466116     6.7296855608115953
38     1          8.5113759337380532     0.2071363424569065     9.6028317126740461
39     1          6.5741244885362100     1.1570987841916307    12.4600875455317937
40     1          8.1558178651075437    -0.2249702512583319    15.0489234544028658
41     1          5.1914461403620971     4.7993164581020533     1.4608481376953371
42     1          6.9179032250653805     3.7306065694537427     4.3451750174187032
43     1          4.7865701499200330     4.4921853654368897     7.1382163567501928
44     1          6.6984082215374254     3.2585102141028357     9.4977075987598436
45     1          4.6286960451592938     4.0130706698503316    12.5281720850775251
46     1          6.3052183993882620     2.9832518524071467    15.2554312088649091
47     1          3.1198192870933115     7.9195255340030819     1.3946707791016484
48     1          4.7989769991678601     6.8300840208564164     3.9353409990103487
49     1          2.7998315888637246     7.5398433932290327     7.0922523320424000
50     1          4.6551224413044583     6.2891963660336971     9.4391675307613152
51     1          2.7604404314684778     7.0829102508376662    12.1687354036405591
52     1          4.3539152818378959     5.8640427908033654    15.0550583447309148
ITEM: TIMESTEP energy, energy_weight, force_weight, nsims
6        -199947.9804291505715810    1    1   89
ITEM: NUMBER OF ATOMS
52        
ITEM: BOX BOUNDS xy xz yz pp pp pp
   -6.1594234642732584     10.7084837284888987     -5.6381130594029623
   -0.9360285627072141      9.1040209029656793     -0.5213104048702960
    0.0000000000000000     16.5666668369960348     -0.9360285627072141
ITEM: ATOMS id type x y z
1      1          1.5333991858042222     0.7982467859662393     3.9572634068993118
2      1         -0.2482269362198641     1.5732379578193194     6.7899004356652615
3      1          1.3861564636891268     0.5460834111277828     9.9003872791891965
4      1         -0.3470769495175451     1.2291026287819902    12.5126640589419278
5      1          1.1651012340819307     0.2375516487909335    15.3820451079254426
6      1         -1.9159404917337768     4.8606707156244306     1.2984379192272102
7      1         -0.2333903320140427     3.9222991366774225     4.3289698689923810
8      1         -2.2924775508367676     4.7627469861692635     6.8675176674260952
9      1         -0.3358480334798516     3.6019409249108296     9.5000034976712335
10     1         -2.3099045372565108     4.4065774631178591    12.1987427167445315
11     1         -0.4642384699909421     3.2191426153717915    15.1281983594448661
12     1         -3.8931324395461373     7.9118925268014149     1.5859660615790014
13     1         -1.9313660625446651     6.7251687223749199     4.0443298047021630
14     1         -4.0784909386444159     7.7004781450949773     7.0556496638100521
15     1         -2.2077231146708969     6.5466208189279600     9.5767265710407372
16     1         -4.3258130079892227     7.5248547285542680    12.4587093636759363
17     1         -2.4121684151668337     6.1035680131454599    15.1482242948655159
18     1          5.3330476332490244     0.6892119337943925     3.9668303662623434
19     1          3.3372614742905156     1.7207076997894586     7.0741935450826761
20     1          4.9176334239697548     0.3812798465463387     9.6536370428754896
21     1          3.1840498433451607     1.4310132311793939    12.3361004375298577
22     1          4.9998852874882775     0.1054346599423288    15.0714112702326926
23     1          1.6926611100561733     5.0223591822892573     1.6003293508040235
24     1          3.2244454565141396     3.8206456423396231     4.2918949566276066
25     1          1.6315017469376545     4.5568024979513382     6.6899367400598173
26     1          3.3540855730763441     3.3607023451721778     9.8361995568722609
27     1          1.2962812306042926     4.2832585645005805    12.4895112462725635
28     1          3.0446307394420993     3.3146783529555055    15.1175059384419725
29     1         -0.2039152305513770     7.9767580961383642     1.2018109871515634
30     1          1.3805077385223492     6.9638886667406315     4.2079929157665230
31     1         -0.3520863782057322     7.7541801201449756     6.6548910853615917
32     1          1.3824545408641882     6.4660919504413501     9.6260605555778849
33     1         -0.7277699711555625     7.4039409553824083    12.5185515832958512
34     1          1.0493949965472353     6.2349932339452039    15.2919332173502092
35     1          7.1422855805670196     1.9014551257942500     1.2452103300063833
36     1          8.8662176048071260     0.6353064975535523     4.3382851789877934
37     1          6.8568306006650639     1.6826508194667820     6.9559718847201593
38     1          8.5485622143336037     0.5214464026136484     9.8986696383991450
39     1          6.8318155826753140     1.3052131768822250    12.4046561503596440
40     1          8.4567101951524908     0.1344974847814477    15.0688048252931779
41     1          5.1824295970627094     4.9017120503622369     1.4021527966827438
42     1          6.6700671485016061     3.9155281624158991     4.0522487284193804
43     1          4.8721148721850671     4.6991621514862425     6.8976117192482675
44     1          6.5334654466675106     3.5423000247850114     9.8989694759435434
45     1          4.9049813504445448     4.2493190961715079    12.5022264998517691
46     1          6.4161968413568298     3.1842436669006462    15.4319755550062681
47     1          3.2779750249761097     8.1013373832904847     1.5793985485083191
48     1          5.0851162511800663     6.8384901805832810     4.0645302884075845
49     1          3.0015462260088972     7.6661103374167645     6.8823499882384249
50     1          4.9010309907971052     6.5968575286434197     9.4791069625234599
51     1          3.0193640720847297     7.4914806681660595    12.3222693599461426
52     1          4.6583317738778867     6.1114280402021715    15.4090251326793695
ITEM: TIMESTEP energy, energy_weight, force_weight, nsims
7        -199948.2377865078451578    1    1   89
ITEM: NUMBER OF ATOMS
52        
ITEM: BOX BOUNDS xy xz yz pp pp pp
   -5.8885737853285880     10.7084837284888987     -5.5410406544042097
   -0.6162839470582625      9.1634315706913370     -0.3475331309243785
    0.0000000000000000     16.5861884028330770     -0.6162839470582625
ITEM: ATOMS id type x y z
1      1          1.7990681003210487     0.8378167750397516     3.9754774668730986
2      1         -0.3029280128017310     1.8965849073945331     6.8920240324387425
3      1          1.5798022583448830     0.6354606997192426     9.5937252181113397
4      1         -0.1258150461743889     1.4750400911807033    12.5263120214538866
5      1          1.5760939104297074     0.4007521533582228    15.0517172978076257
6      1         -2.0787758370059248     5.0642250702741576     1.2864208587871000
7      1         -0.0181840762193470     3.8894840591398414     4.0661836782952632
8      1         -2.0921796460888742     4.8039307437406595     6.8052810308444904
9      1         -0.4697169302664371     3.7734426460644439     9.8972036469767151
10     1         -2.0318223484016196     4.6231865302809858    12.6650318613694779
11     1         -0.4558173183868585     3.3856006406892876    15.0236171656557005
12     1         -3.6751890953104396     8.1440920754248491     1.3637660950612294
13     1         -1.9033912196523606     6.8682233565038029     4.3364465323316121
14     1         -3.9394434191267331     7.8603804366738927     6.9751422122909004