ITEM: TIMESTEP energy, energy_weight, force_weight, nsims
1        -192253.4540768727601971    1    1   90
ITEM: NUMBER OF ATOMS
50        
ITEM: BOX BOUNDS xy xz yz pp pp pp
   -6.6599068561068142     10.6426540787132993     -5.7964044747763319
   -1.5903743695984427      8.9256853388485613     -0.8635023813304824
    0.0000000000000000     16.3996700907443120     -1.5903743695984427
ITEM: ATOMS id type x y z
1      1         -0.3900266653496456     1.3101288096015409     6.9687534846748509
2      1          1.2703635969018365     0.0251539129150389     9.6115990728945935
3      1         -0.5647375389712110     0.7175341235792978    12.3416718539434722
4      1          0.9568256864159035    -0.4188182374287887    15.0225649304946156
5      1         -2.2321721739573936     4.8754934888144552     1.1279914919638494
6      1         -0.5903639857273448     3.6295026340182797     3.8588688576610775
7      1         -2.5103509305322098     4.2802179182297841     6.6742063261269733
8      1         -0.7026227009496127     3.1170418118817085     9.4752411317764889
9      1         -2.8996145175844115     3.9140616617132848    12.1452946651484606
10     1         -1.1302849839178122     2.6151661734918257    15.0812730031890219
11     1         -3.9818670751141747     7.7785934756096458     1.6079166563163863
12     1         -2.4294678237993965     6.4530860308643643     4.1403606724505968
13     1         -4.4883190547579046     7.3156029024271572     6.6364547035789618
14     1         -2.7036481352368402     5.9752595978961489     9.5873572354341015
15     1         -4.4898154119213718     6.7534504641316655    12.4019635535647907
16     1         -2.7603819955996447     5.4436781834417616    14.9039344582754207
17     1          4.8844588606103629     0.6626999769695433     4.0155755533776833
18     1          3.1410590893411405     1.4520422161487356     6.8271327511148217
19     1          4.7600707125345858     0.0614932552668054     9.3858077167568368
20     1          2.6420793171260755     0.8357218613888170    12.2311223489662453
21     1          4.5446708438392838    -0.5344038463160624    14.9412784671722179
22     1          1.4102836343400882     4.8269864000544951     1.2755540192960251
23     1          0.9841985927063540     4.3329831328866364     6.8857280116759929
24     1          2.7578767148295156     2.9544007722508119     9.4203420649768539
25     1          0.8338838750294232     3.6260331287886194    12.4917534974960791
26     1          2.5084905945992508     2.6374784977678480    14.8802769025238479
27     1         -0.3638319008657086     7.7639949470098735     1.4262337800078557
28     1          1.1496620641989255     6.4967432621606536     4.0081991298357273
29     1         -0.9927425154007451     7.3692056939600041     6.9776922498355622
30     1          0.9122052949254901     6.0565513825455843     9.6063937507846955
31     1         -0.8895002567139630     6.6723513115210542    12.3966379694638018
32     1          0.7398656046326619     5.4711862514390113    15.1090599087231325
33     1          6.9070973968006406     1.7910341623947272     1.2909869319755671
34     1          8.5609285913434121     0.4740653190167973     4.3456468269748978
35     1          6.7193024442547058     1.3741454381504095     6.9042047234220476
36     1          8.2653469668190844     0.0496266959690401     9.6537727182123110
37     1          6.4000781636945163     0.8515006603259173    12.0606717297723876
38     1          8.1382523918110898    -0.4791961425481450    15.1390881572062224
39     1          4.9523068446275689     4.9590532230480644     1.3738272227934558
40     1          6.7293448526433801     3.6659888449963325     4.1058508023349614
41     1          4.5887952876496287     4.1885154893605510     7.0469461284565655
42     1          6.3561218738186147     3.1537238476948097     9.5113069579184319
43     1          4.3541205081523691     3.8122008195259198    12.1468027292314158
44     1          6.1000723878696670     2.4100130521435084    14.8410427582626721
45     1          3.0581219503711359     7.7160455333236388     1.5192250342860212
46     1          4.8828305345363203     6.5086247211741286     3.8780660770882607
47     1          2.6910919319547739     7.3280941855193422     6.8557934185487959
48     1          4.4555992790583083     5.9444022866603277     9.6769705113076832
49     1          2.5806467249875187     6.7029563918552109    12.2650468731075524
50     1          3.9983216825852734     5.5137983741047716    14.9590655349339716
ITEM: TIMESTEP energy, energy_weight, force_weight, nsims
2        -192254.4738319701573346    1    1   90
ITEM: NUMBER OF ATOMS
50        
ITEM: BOX BOUNDS xy xz yz pp pp pp
   -4.9281341844185871     11.3334581123085005     -4.9281341844185871
    0.0000000000000000     10.5731894755415397      0.6908040335952012
    0.0000000000000000     16.4452632208175231      1.1402965286096594
ITEM: ATOMS id type x y z
1      1          0.3179194911701395     2.6860334784711615     7.0036432975410969
2      1          2.1501630744230527     1.6185646317221389     9.7077905732542291
3      1          0.5594864534487739     2.9410655266901844    12.2538614436708233
4      1          2.3003820082132749     2.0825971207389333    15.0983746840281050
5      1         -1.5374559007228570     5.4233539069476429     1.4734286295199099
6      1          0.2120314686793893     4.4569860168847653     3.8942641965960618
7      1         -1.2026145895675635     5.6972245171513949     6.7303197197569897
8      1          0.6724071417547377     4.8451278681970704     9.7350762097812336
9      1         -1.1239685687220959     6.2228151816248758    12.5291145346394011
10     1          0.8402162542062576     5.1754907505160412    14.8878236085310665
11     1         -3.3014790070658098     8.4927858058082268     1.2405162735380852
12     1         -1.3560029057424268     7.6915408223074015     4.1492887949572292
13     1         -2.7501820759306059     8.7330873565169025     6.8876745531069892
14     1         -1.1830587126979277     8.1371742909529168     9.6603477499021402
15     1         -2.7863468787554817     9.1707675697693940    12.4755670849077624
16     1         -1.0191511972316643     8.4196633224296118    14.8852374435899382
17     1          5.3819486612544081     1.3712857569994590     4.0758874740417514
18     1          4.0072913114428133     2.5122463872236285     6.9475990811625934
19     1          5.9396035139362358     1.6695482660862149     9.7289141130696581
20     1          4.2672690010122141     2.8263813506033775    12.4560952850053486
21     1          5.9953774069011407     1.9913948966113995    15.0467822898507251
22     1          1.9599256327660524     5.3202723523374491     1.3387884127701080
23     1          2.2919838898797624     5.6158092777146464     6.7797505908909814
24     1          4.1639086088651585     4.9503560461349396     9.4754412136731681
25     1          2.4180461274421212     6.1231105411538573    12.2754372962846006
26     1          4.2903752672825082     5.3718658107802364    15.0104897751769055
27     1          0.4739078077364324     8.5612116859419061     1.3920197756756083
28     1          2.1245057639700904     7.7034669804680078     4.2392990418279473
29     1          0.4532110383495586     8.9001003984433353     6.7485303651510753
30     1          2.3151827472405415     8.0748019524592092     9.6504138965850697
31     1          0.9570672746634902     9.2681372119355423    12.1934654460395340
32     1          2.6106419812429644     8.4223325000725531    14.9956400799408769
33     1          7.1718366098048580     2.2749194583299532     1.2014917895622592
34     1          8.9261057236846710     1.3269761310081440     3.9399211825937419
35     1          7.3723974259182103     2.5419851555157771     6.6194402925033238
36     1          9.4304930284371302     1.6441804358241940     9.5667126150522126
37     1          7.7083892079794136     2.9739907056134993    12.5801194543116353
38     1          9.5995058250649521     2.0045087749671904    15.2759654598433716
39     1          5.6267541831691954     5.3040401763365956     1.2058903984929914
40     1          7.3675337330042376     4.6107681112605405     4.2900080957167921
41     1          5.7011005717668626     5.7863620663876594     6.6132111470710528
42     1          7.5813978667159825     4.7926702262430929     9.3727002239934940
43     1          6.1449620385082717     6.2360674144836894    12.5774939115504161
44     1          7.9713755758568654     5.2019122035318546    15.0142508891283235
45     1          3.9816329367244432     8.4418309066101624     1.3189026136240323
46     1          5.7704023423312201     7.6094604169907338     4.3267199309613140
47     1          4.1115212084280994     8.9012902471693351     7.0452411752731550
48     1          6.0396795830346006     7.9324458115023404     9.7874859597918586
49     1          4.3811187930192492     9.2515155147954076    12.4543349900207296
50     1          6.3136651339024041     8.3922382671341751    15.2321964806792547
ITEM: TIMESTEP energy, energy_weight, force_weight, nsims
3        -192251.0174632910639048    1    1   90
ITEM: NUMBER OF ATOMS
50        
ITEM: BOX BOUNDS xy xz yz pp pp pp
   -5.2025034245272561     11.9644377434859646     -5.2025034245272561
    0.0000000000000000     11.1618418647360809      0.7292638990673665
    0.0000000000000000     17.3608377982202029      1.2037814663863884
ITEM: ATOMS id type x y z
1      1          0.4966620949663686     2.6475563577460139     7.1986095737349602
2      1          2.4372608677957244     1.7518107761694368    10.0270938005193369
3      1          0.7340815416118536     3.1850908916409928    12.9029275439536324
4      1          2.5199315239777254     2.2949011035304809    15.6796704246323113
5      1         -1.5921679439793239     5.5117358553514935     1.3589852813905694
6      1          0.3737841221473469     4.6064853167025381     4.3510806037669081
7      1         -1.3665319476618651     5.9571745457263887     7.2332442441451485
8      1          0.7051273750974024     5.0925616308726962    10.1173931397416990
9      1         -0.9985137167314742     6.2784567004987677    12.8236914804158708
10     1          0.8915829496672200     5.6376237312434352    15.7472219073718769
11     1         -3.3977536327203013     8.8172150052875846     1.4386460344996506
12     1         -1.5522752122099470     8.1794750793916204     4.3653998328316197
13     1         -2.9870900524286506     9.3273300974152615     7.2891954098903531
14     1         -1.1224073492660314     8.4105129472934763    10.0109005444573764
15     1         -2.8365701814002056     9.8606593057402740    13.2754218681436402
16     1         -0.8222473213211596     8.7001703347285861    15.8049527246540364
17     1          5.8563399839901162     1.5512707876682557     4.5898493947911083
18     1          4.2264106207197019     2.7664829199239538     7.0089609627585592
19     1          6.0043251997992613     1.9227685519382633    10.3173230583031277
20     1          4.4717710882384223     3.1520224044647156    13.0258145049117307
21     1          6.1793568496040736     2.2001739822960342    15.6571933358391657
22     1          1.9768883843468279     5.6722033493017872     1.4592479727781609
23     1          2.5877605155112491     5.9677704381790608     7.2295950596804817
24     1          4.2944789214561121     5.1795162588415735     9.8771267000440375
25     1          2.6198998538105931     6.5483199586547807    13.0786265630848035
26     1          4.7000574620657787     5.4577867975853644    16.1247877890352527
27     1          0.6294697144290875     8.8372551848738752     1.1991211162757214
28     1          2.4424897177029168     8.1110315238488084     4.3866354349149557
29     1          0.7659849412604646     9.3164083849211021     7.1349229907978735
30     1          2.6757319267130470     8.5697659189511874    10.1498380747696118
31     1          0.8008252153520067     9.6798123299535899    13.0752346641011741
32     1          3.0235751559710153     8.8278378621574838    16.1196274736885137
33     1          7.7627119232198361     2.4266492460996711     1.6119452204976539
34     1          9.7254529766617726     1.2473907936634971     4.1812699392475974
35     1          7.9043537598764209     2.7896206369391492     7.1220441110200161
36     1          9.7949166859896586     1.9361462734348127    10.1308214195205473
37     1          8.1317357022093031     3.0760490354113728    13.1955611289401293
38     1          9.9559841382232435     2.2319391893063592    16.0192131074540214
39     1          6.0610156399834283     5.5433111879238481     1.5662495214376346
40     1          8.0698310178439403     4.6368236566346228     4.3190176646497065
41     1          6.0325030158010620     6.1110132871084755     7.2009577250684433
42     1          8.0846019008971979     5.0434953796593511    10.1631135561841770
43     1          6.3403231852730597     6.5875677914454878    13.2696582239614536
44     1          8.4403322221939483     5.6031632060278351    16.0419272584152814
45     1          4.2867468748163837     8.8737683763508510     1.5975248748683428
46     1          6.2138993915887388     8.0143045416700538     4.4923685324473945
47     1          4.4686005221795266     9.4829091672258485     7.4654280997791354
48     1          6.2496193797922990     8.4694369400379141    10.0409344111782772
49     1          4.8804887364202196     9.6296551433599529    13.2577118636126841
50     1          6.6312748647350457     8.7119167089829261    15.9045424291283481
ITEM: TIMESTEP energy, energy_weight, force_weight, nsims
4        -192252.4918183669215068    1    1   90
ITEM: NUMBER OF ATOMS
50        
ITEM: BOX BOUNDS xy xz yz pp pp pp
   -6.7011014051951410     10.7084837284888987     -5.8322578694004656
   -1.6002115574830096      8.9808947570555144     -0.8688435357946754
    0.0000000000000000     16.5011094996102265     -1.6002115574830096
ITEM: ATOMS id type x y z
1      1         -0.4423771004592320     1.1919099230962027     7.0645302093660884
2      1          1.3138260103450488     0.0758235607363113     9.7903715299078193
3      1         -0.9046130839929468     0.8928530271623202    12.6224452924296493
4      1          0.8585762415958001    -0.4833424049625663    14.9687479658792952
5      1         -1.9591128147335526     4.7175678933187690     1.4443838439627854
6      1         -0.2268378108205804     3.5130337387550505     3.9462775734422544
7      1         -2.4564415702938982     4.2202798299965920     6.7104841786380423
8      1         -0.7221191042920390     3.0160326627967966     9.7380241780494732
9      1         -2.7054245254649940     3.9273770996614719    12.2513877644505289
10     1         -1.0934165023066802     2.5850386805409489    15.2369751371588578
11     1         -4.0330709049100300     7.9042391734806632     1.1380398248516663
12     1         -2.3892908105292903     6.5523348658454816     4.3130581330202196
13     1         -4.3841688900676230     7.3955133786880873     6.9006979042588181
14     1         -2.6537346745075778     6.1802632444572696     9.4695560658860209
15     1         -4.7730710353318999     6.8564151114963980    12.4473797878911956
16     1         -2.8101524254812427     5.4767715476109382    15.1443927993874627
17     1          4.9137483860730589     0.7032197013596290     3.9472841709127331
18     1          3.2565334280065561     1.3244820225032681     6.6864800415122616
19     1          4.9747246341198199     0.0128705265932708     9.5855835579325710
20     1          2.9278440158991992     0.7672810635685681    12.1638844605115519
21     1          4.5267523509124521    -0.3597161728622806    15.3024971365483644
22     1          1.3589933238634420     4.7225548341911257     1.6136614130459921
23     1          1.2019523391367795     4.3191651812905762     6.6555592947462499
24     1          2.8456606866765388     3.0193180256046972     9.7014343599976005
25     1          0.7861954583781979     3.6468308887006553    12.5299304181057440
26     1          2.4466304575018567     2.5330190082846955    14.9840675227012703
27     1         -0.5759622224270126     7.7686879739003327     1.1279620708147853
28     1          1.3477419200099188     6.5003719485529894     3.9836341189290883
29     1         -0.6449141491547525     7.3039644095964897     7.1049975693760477
30     1          0.8606676084679740     6.0780914595070126     9.5221207999640534
31     1         -1.2598391896278718     6.8648726719451583    12.5786957821569096
32     1          0.4027567815121960     5.5867059124159777    15.3260558007510390
33     1          6.9143490793158957     1.7831949148903099     1.2146322547196833
34     1          8.5915171551136904     0.5094154211446911     4.3466720634439460
35     1          6.7121033013777902     1.3923384713455835     6.8556130460651348
36     1          8.2584908070962957     0.1389061675324666     9.6462931647344927
37     1          6.5268658081456437     0.6890973530184976    12.3494881838872139
38     1          8.1918786840632318    -0.4451505977449107    15.2900303197916561
39     1          4.8732606799440150     4.8462699467063590     1.2896162703316811
40     1          6.8566742568026271     3.5603523866544977     4.1708237687449383
41     1          4.8592025825052545     4.2744765369948468     6.8854243939168747
42     1          6.3364207792763318     3.0232084177432572     9.7946227979480280
43     1          4.3220885973484542     3.9025269923211408    12.1389583229367499
44     1          6.0163463423285455     2.5754181787592745    15.2698491113569457
45     1          3.3007241278089117     7.7180079329585141     1.4601317401339011
46     1          4.9622321170021646     6.4555837153585847     4.3391343617474627
47     1          2.7203446558438973     7.3301327312837987     6.9892356477259643
48     1          4.5006097295860927     6.0805651192482930     9.8692427251132582
49     1          2.5339463629755823     6.8510565862386619    12.2743874458025761
50     1          4.3330455178994445     5.4872733576034669    15.3001230657057583
ITEM: TIMESTEP energy, energy_weight, force_weight, nsims
5        -192254.0600339835509658    1    1   90
ITEM: NUMBER OF ATOMS
50        
ITEM: BOX BOUNDS xy xz yz pp pp pp
   -6.4302624347341997     10.7084837284888987     -5.7351854644017131
   -1.2638902090223603      9.0431860069041363     -0.6950769703324866
    0.0000000000000000     16.5384928163063805     -1.2638902090223603
ITEM: ATOMS id type x y z
1      1         -0.2672162904155934     1.4340458737713022     6.7956798043335276
2      1          1.2825433168290141     0.2278765337422438     9.7379781315694416
3      1         -0.7432480135367203     1.1190012116307859    12.3724107641564167
4      1          1.0350691870152628    -0.1237397420278078    15.3817731124387382
5      1         -2.0370309548871566     4.9453651842814219     1.5276776429480905
6      1         -0.2365836018618781     3.6524988891381449     4.2137465840738404
7      1         -2.1562313706624576     4.4722290351604785     6.6940273808441004
8      1         -0.6059770314695940     3.1834073343214513     9.5071674732855911
9      1         -2.3872990325557910     3.9647861167185749    12.3437227362477966
10     1         -0.7545111967223450     2.7399786607600816    15.2579241438769007
11     1         -3.9201895653829100     7.9292092158387542     1.4552433173118460
12     1         -2.1740395791029345     6.7088950396527354     3.9312878379191156
13     1         -4.3043039475721798     7.5462770502531100     6.9684322763866282
14     1         -2.4298256339867392     6.4187144058813965     9.7165333220547687
15     1         -4.4632360505252935     7.0798369160075909    12.4915758419354148
16     1         -2.8833524077040740     5.9764786574073803    14.9423558368820633
17     1          5.1435770763990059     0.6367489303117797     3.9765504569426930
18     1          3.3373096624672938     1.5004641732488817     6.7272718685791952
19     1          4.9437674785091312     0.1867281141671523     9.6282183150491765
20     1          2.9150527320855195     0.9222488858453951    12.6166541444292832
21     1          4.7528116549659716    -0.0265945193397022    15.1568017903320360
22     1          1.3718349375506460     4.8649744552349103     1.5902869347634467
23     1          1.4502317469269130     4.5008453162281192     6.7968170453054935
24     1          2.9267860177068252     3.2583142488506041     9.4191662248532424
25     1          1.0448674496268302     3.9674525291669687    12.4560001172926302
26     1          2.8171204358433704     2.7437384093971540    14.9626580511829026
27     1         -0.5571120785197534     7.9447600759092651     1.6198112952512633
28     1          1.3716657435077357     6.5778542534188436     4.2326277825839123
29     1         -0.7871110337369838     7.6286199358833251     6.9962197208136852
30     1          0.9495480234144319     6.3255613059272724     9.6323335853460339
31     1         -0.9407199494286657     6.9890418241704788    12.3728476702925398
32     1          0.8626797325605571     5.8057233175696421    15.3614569771090501
33     1          7.0760621754932984     1.9570492899190728     1.2708068186625903
34     1          8.8940382455337392     0.6301353707610650     3.9870544086319679
35     1          6.9187149281320011     1.4289657690905069     7.0708182310114571
36     1          8.4327167665104383     0.3166059590681299     9.5315078568004470
37     1          6.4665684779672681     1.1374262287340240    12.2775196772931583
38     1          8.3415725781037775    -0.2778690900286942    15.3108690291272964
39     1          5.0641779529457525     4.8731610910453398     1.2006962339954277
40     1          6.7083874575240046     3.6449237077486116     4.2068631707331683
41     1          4.9470164324723545     4.4170085971177793     6.9368829416257540
42     1          6.6468907771680374     3.2616992005571790     9.4000237393401953
43     1          4.5768884008808648     4.1685471451042613    12.5069682164467455
44     1          6.5000025058643560     2.7305776828948414    15.3758288331210551
45     1          3.0189924876993510     8.0671644700161309     1.2935377170730535
46     1          4.9951564210737773     6.6641496403932443     4.3643292822638511
47     1          3.0324198554465038     7.4446888776660538     6.6848084472022453
48     1          4.4792152499449447     6.3458249696866913     9.7047839737078725
49     1          2.4937702737230376     7.1989473805195727    12.2880793130978212
50     1          4.3053587332194363     5.9313338317048174    15.1808423363024918
ITEM: TIMESTEP energy, energy_weight, force_weight, nsims
6        -192254.5749365927476902    1    1   90
ITEM: NUMBER OF ATOMS
50        
ITEM: BOX BOUNDS xy xz yz pp pp pp
   -6.1594234642732584     10.7084837284888987     -5.6381130594029623
   -0.9360285627072141      9.1040209029656793     -0.5213104048702960
    0.0000000000000000     16.5666668369960348     -0.9360285627072141
ITEM: ATOMS id type x y z
1      1         -0.2060451479649734     1.7691967849604291     6.6681642509430548
2      1          1.5127178911793915     0.5291565108981604     9.6003816115969691
3      1         -0.4446933454897042     1.3190271208919757    12.5197006035999188
4      1          1.4598072730769280     0.0607845661880215    15.3246636978663364
5      1         -1.9585880990308566     5.0102982170658601     1.2904279733983006
6      1         -0.1666175817250502     3.8175337569681238     3.9557824235996617
7      1         -2.1327198237881873     4.7873582943224502     7.1232544632847485
8      1         -0.3758452910541306     3.5334312585610768     9.6918631172410770
9      1         -2.3988674075276779     4.2986948437951966    12.3510462682697089
10     1         -0.5033972532892803     3.2290918676039309    14.9390747574676510
11     1         -3.7243581691981698     8.0123263248425403     1.2449265551875783
12     1         -2.1998074034987973     6.7535269289847042     4.2536881575327312
13     1         -4.1178328370145110     7.7831797649300967     7.0326157153100723
14     1         -2.3406025475609695     6.6123216499957307     9.5639042326242443
15     1         -4.2653282793455984     7.3473102100326679    12.4381940505488977
16     1         -2.4745271284629431     6.1696661289595580    15.0262246814435851
17     1          5.3523400375342698     0.7004151494711376     3.9594008202515183
18     1          3.1935696853797872     1.7137900193008548     7.1383480711000544
19     1          5.0443362034452344     0.5457964237638593     9.5670000552701495
20     1          3.2733050552221155     1.2957201060569197    12.5614701152312627
21     1          5.0319057955332047     0.1009403093214821    15.1168623585698896
22     1          1.4736565550829828     5.1057493576281185     1.4350503295450345
23     1          1.2589578814170173     4.6515211782265684     7.1302481740078241
24     1          3.3173640406746108     3.4597858034151399     9.6975418261622934
25     1          1.3501963044804883     4.3636642854243126    12.3093431492374830
26     1          3.0118156619045178     3.1829629322467188    15.1104875982063191
27     1         -0.2880185909065560     8.0278022255269512     1.5770276902108318
28     1          1.4998677107052050     6.7915291960403659     4.0449369757295690
29     1         -0.4345631198825537     7.6559201443007341     6.9902026238066473
30     1          1.1218892896923593     6.5963820719658752     9.4360920542344928
31     1         -0.6557275760237806     7.3922794166020838    12.4465509512506110
32     1          1.2239111558704188     6.0756959716969492    15.4143804453919877
33     1          7.1224866650014160     2.0275475216972065     1.5938946229315745
34     1          8.6769847762958801     0.8414351716916079     3.9114503718120903
35     1          6.9000007819680933     1.6516079959862653     7.1067526898591469
36     1          8.7200682188807086     0.3717824923275418     9.4942958758439477
37     1          6.6026336847665661     1.3788629154216532    12.6225213226641237
38     1          8.3879820757346764     0.1085240574979979    15.1641338891409294
39     1          5.1228208223880758     4.9062942105496576     1.4554296449287216
40     1          6.7499063906361014     3.8161555751122678     4.0650078867818751
41     1          5.0459735306073208     4.7718491973384793     6.8062340858963264
42     1          6.6866278185877146     3.6271390579723368     9.4887938569042500
43     1          4.6660311736786708     4.4590511750842001    12.5077242353979745
44     1          6.3824918888214111     3.2862098489633178    15.0287893632965588
45     1          3.2540308553592081     8.0818586513883641     1.4053760502850190
46     1          4.8379076917627817     6.8721887080284620     4.1124539656376911
47     1          3.1942989331216975     7.7883005618490593     6.7516197480326596
48     1          4.7771295506649967     6.4152834076947887     9.7160824948898004
49     1          2.8070758781060476     7.3676156368786287    12.3619582131890411
50     1          4.6131130596375973     6.2436414054043317    15.1503167325860613
ITEM: TIMESTEP energy, energy_weight, force_weight, nsims
7        -192255.4395751673728228    1    1   90
ITEM: NUMBER OF ATOMS
50        
ITEM: BOX BOUNDS xy xz yz pp pp pp
   -5.8885737853285880     10.7084837284888987     -5.5410406544042097
   -0.6162839470582625      9.1634315706913370     -0.3475331309243785
    0.0000000000000000     16.5861884028330770     -0.6162839470582625
ITEM: ATOMS id type x y z
1      1         -0.3751203267057118     1.8603259814898698     7.0255363367171686
2      1          1.7324955986777790     0.5311343678428123     9.9002973279258768
3      1         -0.3868632499623728     1.6974874236726032    12.6099934675501633
4      1          1.4292291977902278     0.3907568546460513    15.1344788851516263
5      1         -1.9687493792408197     5.0892058211159767     1.3376502449441907
6      1         -0.2062860888488645     3.8441314888529452     3.9566091185435011
7      1         -2.1605029848217518     4.8642858997311684     6.8267311946010274
8      1         -0.1482343277083533     3.6881538565605214     9.6274494459174704
9      1         -2.2012701823761094     4.6332214503829539    12.4223626282046986
10     1         -0.5808228031913737     3.5848276970643318    15.0069001517071534
11     1         -3.5304660794166578     7.9802244323212745     1.1673874953579630
12     1         -2.0702625924417761     7.0723409773976478     4.1152338880136066
13     1         -3.7585332241692688     7.7746633078208296     6.8741023140707425
14     1         -2.1865942054262151     6.7760511536592070     9.7468672439124600
15     1         -4.0944455085514919     7.6702534497713168    12.3496552362333798
16     1         -2.1569306346499282     6.5635959073343599    14.9930240984917802
17     1          5.3534794202029810     0.8214713454765861     4.0041772741138217
18     1          3.4608309514270408     1.8225410966538964     7.0993809696604560
19     1          5.2761652385316644     0.5420431002170240     9.5227451045654234
20     1          3.3081654531518385     1.6287143286231289    12.5914688615482522
21     1          4.8145428511155917     0.5435754842385707    15.3833847392398759
22     1          1.6069429103547381     4.9742331147166823     1.5634975210198860
23     1          1.3945058684522296     4.9287756012892476     6.6943732648685312
24     1          3.5098554607844354     3.5762812562006250     9.9087987931579242
25     1          1.4917881597320599     4.5448775304712923    12.3263621424271701
26     1          3.0542233991660797     3.6009428942273352    15.4499122652514860