ITEM: TIMESTEP energy, energy_weight, force_weight, nsims
1        -7687.1399861479521860    1    1   1080
ITEM: NUMBER OF ATOMS
2         
ITEM: BOX BOUNDS xy xz yz pp pp pp
    0.0000000000000000      3.3799609248128002      0.0000000000000002
    0.0000000000000000      3.3799609248127997      0.0000000000000002
    0.0000000000000000      3.3799609248127997      0.0000000000000002
ITEM: ATOMS id type x y z
1      1          0.0000000000000000     0.0000000000000000     0.0000000000000000
2      1          1.6899804624063999     1.6899804624063999     1.6899804624063999
ITEM: TIMESTEP energy, energy_weight, force_weight, nsims
2        -7688.1684472594315594    1    1   1080
ITEM: NUMBER OF ATOMS
2         
ITEM: BOX BOUNDS xy xz yz pp pp pp
    0.0000000000000000      3.5104560344162001      0.0000000000000002
    0.0000000000000000      3.5104560344161997      0.0000000000000002
    0.0000000000000000      3.5104560344161997      0.0000000000000002
ITEM: ATOMS id type x y z
1      1          0.0000000000000000     0.0000000000000000     0.0000000000000000
2      1          1.7552280172080998     1.7552280172080998     1.7552280172080998
ITEM: TIMESTEP energy, energy_weight, force_weight, nsims
3        -7689.7799802894105596    1    1   1080
ITEM: NUMBER OF ATOMS
2         
ITEM: BOX BOUNDS xy xz yz pp pp pp
    0.0000000000000000      3.8325133081575999      0.0000000000000002
    0.0000000000000000      4.0398254505357682      0.0000000000000002
    0.0000000000000000      4.0398254505357682      0.0000000000000002
ITEM: ATOMS id type x y z
1      1          0.0000000000000000     0.0000000000000000     0.0000000000000000
2      1          1.9162566540788002     2.0199127252678841     2.0199127252678841
ITEM: TIMESTEP energy, energy_weight, force_weight, nsims
4        -7689.6359487370018542    1    1   1080
ITEM: NUMBER OF ATOMS
2         
ITEM: BOX BOUNDS xy xz yz pp pp pp
   -0.3441188748515668      3.8714068611926833     -0.1720594374257834
   -0.1798841309884685      3.8675814968637066     -0.1720594374257834
    0.0000000000000000      3.8633959587778506     -0.1798841309884685
ITEM: ATOMS id type x y z
1      1          0.0000000000000000     0.0000000000000000     0.0000000000000000
2      1          1.7636439931705581     1.8438486829376191     1.9316979793889253
ITEM: TIMESTEP energy, energy_weight, force_weight, nsims
5        -7689.6453851049527657    1    1   1080
ITEM: NUMBER OF ATOMS
2         
ITEM: BOX BOUNDS xy xz yz pp pp pp
   -0.3351457761182540      3.8756954261062262     -0.1675728880591270
   -0.1749818473201397      3.8720710689666129     -0.1675728880591270
    0.0000000000000000      3.8681152666688567     -0.1749818473201397
ITEM: ATOMS id type x y z
1      1          0.0000000000000000     0.0000000000000000     0.0000000000000000
2      1          1.7702748249939861     1.8485446108232366     1.9340576333344284
ITEM: TIMESTEP energy, energy_weight, force_weight, nsims
6        -7689.6544568401950528    1    1   1080
ITEM: NUMBER OF ATOMS
2         
ITEM: BOX BOUNDS xy xz yz pp pp pp
   -0.3261952327372948      3.8800326186954490     -0.1630976163686474
   -0.1701037923548007      3.8766031896075628     -0.1630976163686474
    0.0000000000000000      3.8728693483646008     -0.1701037923548007
ITEM: ATOMS id type x y z
1      1          0.0000000000000000     0.0000000000000000     0.0000000000000000
2      1          1.7769186929790772     1.8532496986263811     1.9364346741823004
ITEM: TIMESTEP energy, energy_weight, force_weight, nsims
7        -7689.6631752354587661    1    1   1080
ITEM: NUMBER OF ATOMS
2         
ITEM: BOX BOUNDS xy xz yz pp pp pp
   -0.3172584757712637      3.8843203109281408     -0.1586292378856319
   -0.1652452475602159      3.8810798810094997     -0.1586292378856319
    0.0000000000000000      3.8775604509711354     -0.1652452475602159
ITEM: ATOMS id type x y z
1      1          0.0000000000000000     0.0000000000000000     0.0000000000000000
2      1          1.7835309175784384     1.8579173167246419     1.9387802254855677
ITEM: TIMESTEP energy, energy_weight, force_weight, nsims
8        -7689.6715396104582396    1    1   1080
ITEM: NUMBER OF ATOMS
2         
ITEM: BOX BOUNDS xy xz yz pp pp pp
   -0.3083403241120946      3.8886075019888602     -0.1541701620560473
   -0.1604086077072863      3.8855501368088992     -0.1541701620560472
    0.0000000000000000      3.8822376207838003     -0.1604086077072863
ITEM: ATOMS id type x y z
1      1          0.0000000000000000     0.0000000000000000     0.0000000000000000
2      1          1.7901335889383827     1.8625707645508065     1.9411188103919002
ITEM: TIMESTEP energy, energy_weight, force_weight, nsims
9        -7689.6795696934577791    1    1   1080
ITEM: NUMBER OF ATOMS
2         
ITEM: BOX BOUNDS xy xz yz pp pp pp
   -0.2994562756639911      3.8928942984953800     -0.1497281378319955
   -0.1556021026333993      3.8900138179702139     -0.1497281378319955
    0.0000000000000000      3.8869004990680254     -0.1556021026333993
ITEM: ATOMS id type x y z
1      1          0.0000000000000000     0.0000000000000000     0.0000000000000000
2      1          1.7967190114156943     1.8672058576684074     1.9434502495340127
ITEM: TIMESTEP energy, energy_weight, force_weight, nsims
10       -7689.6872663007970914    1    1   1080
ITEM: NUMBER OF ATOMS
2         
ITEM: BOX BOUNDS xy xz yz pp pp pp
   -0.2905721547642778      3.8971274310669264     -0.1452860773821389
   -0.1508072197811395      3.8944183352194215     -0.1452860773821389
    0.0000000000000000      3.8914973149361280     -0.1508072197811395
ITEM: ATOMS id type x y z
1      1          0.0000000000000000     0.0000000000000000     0.0000000000000000
2      1          1.8032776381513242     1.8718055577191410     1.9457486574680640
ITEM: TIMESTEP energy, energy_weight, force_weight, nsims
11       -7689.6946452150850746    1    1   1080
ITEM: NUMBER OF ATOMS
2         
ITEM: BOX BOUNDS xy xz yz pp pp pp
   -0.2817267523053771      3.9014129886421562     -0.1408633761526886
   -0.1460445762673416      3.8988691715938080     -0.1408633761526886
    0.0000000000000000      3.8961329288087030     -0.1460445762673416
ITEM: ATOMS id type x y z
1      1          0.0000000000000000     0.0000000000000000     0.0000000000000000
2      1          1.8098431181683896     1.8764122976632331     1.9480664644043515
ITEM: TIMESTEP energy, energy_weight, force_weight, nsims
12       -7689.7017131031152530    1    1   1080
ITEM: NUMBER OF ATOMS
2         
ITEM: BOX BOUNDS xy xz yz pp pp pp
   -0.2728856578187700      3.9056977200281149     -0.1364428289093850
   -0.1412956093777220      3.9033137248589203     -0.1364428289093850
    0.0000000000000000      3.9007555146974542     -0.1412956093777220
ITEM: ATOMS id type x y z
1      1          0.0000000000000000     0.0000000000000000     0.0000000000000000
2      1          1.8164060311046726     1.8810090577405991     1.9503777573487271
ITEM: TIMESTEP energy, energy_weight, force_weight, nsims
13       -7689.7085016661667396    1    1   1080
ITEM: NUMBER OF ATOMS
2         
ITEM: BOX BOUNDS xy xz yz pp pp pp
   -0.2640761822882842      3.9099328517755660     -0.1320380911441421
   -0.1365749036612833      3.9077027583838588     -0.1320380911441421
    0.0000000000000000      3.9053153705649359     -0.1365749036612833
ITEM: ATOMS id type x y z
1      1          0.0000000000000000     0.0000000000000000     0.0000000000000000
2      1          1.8229283347436409     1.8855639273612879     1.9526576852824680
ITEM: TIMESTEP energy, energy_weight, force_weight, nsims
14       -7689.7809506477979085    1    1   1080
ITEM: NUMBER OF ATOMS
2         
ITEM: BOX BOUNDS xy xz yz pp pp pp
    0.0000000000000000      3.8368525615994002      0.0000000000000002
    0.0000000000000000      4.0398182252554466      0.0000000000000002
    0.0000000000000000      4.0398182252554466      0.0000000000000002
ITEM: ATOMS id type x y z
1      1          0.0000000000000000     0.0000000000000000     0.0000000000000000
2      1          1.9184262807997003     2.0199091126277233     2.0199091126277233
ITEM: TIMESTEP energy, energy_weight, force_weight, nsims
15       -7689.7150258705032684    1    1   1080
ITEM: NUMBER OF ATOMS
2         
ITEM: BOX BOUNDS xy xz yz pp pp pp
   -0.2552751444690806      3.9142200038668093     -0.1276375722345403
   -0.1318697947542602      3.9121384035876283     -0.1276375722345403
    0.0000000000000000      3.9099152479378154     -0.1318697947542602
ITEM: ATOMS id type x y z
1      1          0.0000000000000000     0.0000000000000000     0.0000000000000000
2      1          1.8294724296988645     1.8901343044166841     1.9549576239689077
ITEM: TIMESTEP energy, energy_weight, force_weight, nsims
16       -7689.7213091179255571    1    1   1080
ITEM: NUMBER OF ATOMS
2         
ITEM: BOX BOUNDS xy xz yz pp pp pp
   -0.2464910938854098      3.9184534341140789     -0.1232455469427049
   -0.1271848651832291      3.9165147581081845     -0.1232455469427049
    0.0000000000000000      3.9144491132913624     -0.1271848651832291
ITEM: ATOMS id type x y z
1      1          0.0000000000000000     0.0000000000000000     0.0000000000000000
2      1          1.8359811701143347     1.8946649464624776     1.9572245566456812
ITEM: TIMESTEP energy, energy_weight, force_weight, nsims
17       -7689.7273386190809106    1    1   1080
ITEM: NUMBER OF ATOMS
2         
ITEM: BOX BOUNDS xy xz yz pp pp pp
   -0.2377432854956448      3.9226861357119445     -0.1188716427478224
   -0.1225301587050823      3.9208846006809663     -0.1188716427478224
    0.0000000000000000      3.9189695599819161     -0.1225301587050823
ITEM: ATOMS id type x y z
1      1          0.0000000000000000     0.0000000000000000     0.0000000000000000
2      1          1.8424714251081498     1.8991772209879421     1.9594847799909580
ITEM: TIMESTEP energy, energy_weight, force_weight, nsims
18       -7689.7331463473583426    1    1   1080
ITEM: NUMBER OF ATOMS
2         
ITEM: BOX BOUNDS xy xz yz pp pp pp
   -0.2290011056519160      3.9269178202876027     -0.1145005528259580
   -0.1178892691524977      3.9252481693129782     -0.1145005528259580
    0.0000000000000000      3.9234774513068862     -0.1178892691524977
ITEM: ATOMS id type x y z
1      1          0.0000000000000000     0.0000000000000000     0.0000000000000000
2      1          1.8489583573178434     1.9036794500802403     1.9617387256534431
ITEM: TIMESTEP energy, energy_weight, force_weight, nsims
19       -7689.7387305340153034    1    1   1080
ITEM: NUMBER OF ATOMS
2         
ITEM: BOX BOUNDS xy xz yz pp pp pp
   -0.2202831742972140      3.9312054159423835     -0.1101415871486070
   -0.1132719182182424      3.9296621805334762     -0.1101415871486070
    0.0000000000000000      3.9280293183297741     -0.1132719182182424
ITEM: ATOMS id type x y z
1      1          0.0000000000000000     0.0000000000000000     0.0000000000000000
2      1          1.8554611208225846     1.9081951311576169     1.9640146591648870
ITEM: TIMESTEP energy, energy_weight, force_weight, nsims
20       -7689.7440922675086767    1    1   1080
ITEM: NUMBER OF ATOMS
2         
ITEM: BOX BOUNDS xy xz yz pp pp pp
   -0.2115836778841180      3.9354391212163331     -0.1057918389420590
   -0.1086749912496324      3.9340169246729535     -0.1057918389420590
    0.0000000000000000      3.9325155956321556     -0.1086749912496324
ITEM: ATOMS id type x y z
1      1          0.0000000000000000     0.0000000000000000     0.0000000000000000
2      1          1.8619277216661076     1.9126709667116606     1.9662577978160778
ITEM: TIMESTEP energy, energy_weight, force_weight, nsims
21       -7689.7492379425175386    1    1   1080
ITEM: NUMBER OF ATOMS
2         
ITEM: BOX BOUNDS xy xz yz pp pp pp
   -0.2029032153409355      3.9396188919153339     -0.1014516076704677
   -0.1040986739813591      3.9383124031540819     -0.1014516076704677
    0.0000000000000000      3.9369363788246061     -0.1040986739813591
ITEM: ATOMS id type x y z
1      1          0.0000000000000000     0.0000000000000000     0.0000000000000000
2      1          1.8683578382871993     1.9171068645863614     1.9684681894123031
ITEM: TIMESTEP energy, energy_weight, force_weight, nsims
22       -7689.7541730013199412    1    1   1080
ITEM: NUMBER OF ATOMS
2         
ITEM: BOX BOUNDS xy xz yz pp pp pp
   -0.1942320217687515      3.9438504216401102     -0.0971160108843757
   -0.0995376436104774      3.9426545155137269     -0.0971160108843757
    0.0000000000000000      3.9413978340438125     -0.0995376436104774
ITEM: ATOMS id type x y z
1      1          0.0000000000000000     0.0000000000000000     0.0000000000000000
2      1          1.8748091999356793     1.9215584359516247     1.9706989170219062
ITEM: TIMESTEP energy, energy_weight, force_weight, nsims
23       -7689.7588807089086913    1    1   1080
ITEM: NUMBER OF ATOMS
2         
ITEM: BOX BOUNDS xy xz yz pp pp pp
   -0.1855986096234882      3.9480848959550938     -0.0927993048117441
   -0.0950067906454190      3.9469941265088297     -0.0927993048117441
    0.0000000000000000      3.9458505223115661     -0.0950067906454190
ITEM: ATOMS id type x y z
1      1          0.0000000000000000     0.0000000000000000     0.0000000000000000
2      1          1.8812431431658028     1.9259936679317053     1.9729252611557830
ITEM: TIMESTEP energy, energy_weight, force_weight, nsims
24       -7689.7633590244267907    1    1   1080
ITEM: NUMBER OF ATOMS
2         
ITEM: BOX BOUNDS xy xz yz pp pp pp
   -0.1769720426530459      3.9523181407297385     -0.0884860213265230
   -0.0904897618422704      3.9513274870062567     -0.0884860213265230
    0.0000000000000000      3.9502911933897873     -0.0904897618422704
ITEM: ATOMS id type x y z
1      1          0.0000000000000000     0.0000000000000000     0.0000000000000000
2      1          1.8876730490383464     1.9304188625819931     1.9751455966948936
ITEM: TIMESTEP energy, energy_weight, force_weight, nsims
25       -7689.7819035908896694    1    1   1080
ITEM: NUMBER OF ATOMS
2         
ITEM: BOX BOUNDS xy xz yz pp pp pp
    0.0000000000000000      3.8411918150412001      0.0000000000000002
    0.0000000000000000      4.0398198437969794      0.0000000000000002
    0.0000000000000000      4.0398198437969794      0.0000000000000002
ITEM: ATOMS id type x y z
1      1          0.0000000000000000     0.0000000000000000     0.0000000000000000
2      1          1.9205959075206003     2.0199099218984897     2.0199099218984897
ITEM: TIMESTEP energy, energy_weight, force_weight, nsims
26       -7689.7675951585188159    1    1   1080
ITEM: NUMBER OF ATOMS
2         
ITEM: BOX BOUNDS xy xz yz pp pp pp
   -0.1683658789681750      3.9565012480203761     -0.0841829394840875
   -0.0859935772516046      3.9556055615147740     -0.0841829394840875
    0.0000000000000000      3.9546707148583291     -0.0859935772516046
ITEM: ATOMS id type x y z
1      1          0.0000000000000000     0.0000000000000000     0.0000000000000000
2      1          1.8940676845261004     1.9348059921315848     1.9773353574291646
ITEM: TIMESTEP energy, energy_weight, force_weight, nsims
27       -7689.7715764578861126    1    1   1080
ITEM: NUMBER OF ATOMS
2         
ITEM: BOX BOUNDS xy xz yz pp pp pp
   -0.1597692957119952      3.9607320211483263     -0.0798846478559976
   -0.0815124354187301      3.9599263359798282     -0.0798846478559976
    0.0000000000000000      3.9590873076074913     -0.0815124354187301
ITEM: ATOMS id type x y z
1      1          0.0000000000000000     0.0000000000000000     0.0000000000000000
2      1          1.9004813627181656     1.9392069502805491     1.9795436538037456
ITEM: TIMESTEP energy, energy_weight, force_weight, nsims
28       -7689.7753021061889740    1    1   1080
ITEM: NUMBER OF ATOMS
2         
ITEM: BOX BOUNDS xy xz yz pp pp pp
   -0.1512094711219006      3.9649126620538917     -0.0756047355609503
   -0.0770604116963092      3.9641917639887247     -0.0756047355609503
    0.0000000000000000      3.9634426998034460     -0.0770604116963092
ITEM: ATOMS id type x y z
1      1          0.0000000000000000     0.0000000000000000     0.0000000000000000
2      1          1.9068515954659957     1.9435656761462079     1.9817213499017230
ITEM: TIMESTEP energy, energy_weight, force_weight, nsims
29       -7689.7787616270352373    1    1   1080
ITEM: NUMBER OF ATOMS
2         
ITEM: BOX BOUNDS xy xz yz pp pp pp
   -0.1426594110707820      3.9691488187685988     -0.0713297055353910
   -0.0726233021343374      3.9685078327553289     -0.0713297055353910
    0.0000000000000000      3.9678432774780186     -0.0726233021343374
ITEM: ATOMS id type x y z
1      1          0.0000000000000000     0.0000000000000000     0.0000000000000000
2      1          1.9132447038489084     1.9479422653104959     1.9839216387390093
ITEM: TIMESTEP energy, energy_weight, force_weight, nsims
30       -7689.7819569252269503    1    1   1080
ITEM: NUMBER OF ATOMS
2         
ITEM: BOX BOUNDS xy xz yz pp pp pp
   -0.1341153494798822      3.9733266915663448     -0.0670576747399411
   -0.0681991177484879      3.9727607864269938     -0.0670576747399411
    0.0000000000000000      3.9721753670388669     -0.0681991177484879
ITEM: ATOMS id type x y z
1      1          0.0000000000000000     0.0000000000000000     0.0000000000000000
2      1          1.9196056710432314     1.9522808343392530     1.9860876835194334
ITEM: TIMESTEP energy, energy_weight, force_weight, nsims
31       -7689.7848783407143856    1    1   1080
ITEM: NUMBER OF ATOMS
2         
ITEM: BOX BOUNDS xy xz yz pp pp pp
   -0.1256110224375076      3.9775072352517293     -0.0628055112187538
   -0.0638051756015521      3.9770113495237109     -0.0628055112187538
    0.0000000000000000      3.9764994874646797     -0.0638051756015521
ITEM: ATOMS id type x y z
1      1          0.0000000000000000     0.0000000000000000     0.0000000000000000
2      1          1.9259481064071107     1.9566030869610795     1.9882497437323399
ITEM: TIMESTEP energy, energy_weight, force_weight, nsims
32       -7689.7875291388691039    1    1   1080
ITEM: NUMBER OF ATOMS
2         
ITEM: BOX BOUNDS xy xz yz pp pp pp
   -0.1171151252115685      3.9816902883253245     -0.0585575626057843
   -0.0594251784746440      3.9812596705070460     -0.0585575626057843
    0.0000000000000000      3.9808161490037608     -0.0594251784746440
ITEM: ATOMS id type x y z
1      1          0.0000000000000000     0.0000000000000000     0.0000000000000000
2      1          1.9322875815568781     1.9609172460162010     1.9904080745018804
ITEM: TIMESTEP energy, energy_weight, force_weight, nsims
33       -7689.7899223811600677    1    1   1080
ITEM: NUMBER OF ATOMS
2         
ITEM: BOX BOUNDS xy xz yz pp pp pp
   -0.1086278109124159      3.9858678612055902     -0.0543139054562080
   -0.0550591324477511      3.9854977865588785     -0.0543139054562080
    0.0000000000000000      3.9851174510420417     -0.0550591324477511
ITEM: ATOMS id type x y z
1      1          0.0000000000000000     0.0000000000000000     0.0000000000000000
2      1          1.9386200251465873     1.9652193270555638     1.9925587255210209
ITEM: TIMESTEP energy, energy_weight, force_weight, nsims
34       -7689.7920588839269840    1    1   1080
ITEM: NUMBER OF ATOMS
2         
ITEM: BOX BOUNDS xy xz yz pp pp pp
   -0.1001650920161827      3.9900479404267264     -0.0500825460080913
   -0.0507151706290752      3.9897336133492560     -0.0500825460080913
    0.0000000000000000      3.9894112694678365     -0.0507151706290752
ITEM: ATOMS id type x y z
1      1          0.0000000000000000     0.0000000000000000     0.0000000000000000
2      1          1.9449414242052718     1.9695092213600904     1.9947056347339183
ITEM: TIMESTEP energy, energy_weight, force_weight, nsims
35       -7689.7939525249839789    1    1   1080
ITEM: NUMBER OF ATOMS
2         
ITEM: BOX BOUNDS xy xz yz pp pp pp
   -0.0917271985252878      3.9942304949909562     -0.0458635992626439
   -0.0463932847981996      3.9939671727967889     -0.0458635992626439
    0.0000000000000000      3.9936977152138109     -0.0463932847981996
ITEM: ATOMS id type x y z
1      1          0.0000000000000000     0.0000000000000000     0.0000000000000000
2      1          1.9512516482328344     1.9737869439992948     1.9968488576069054
ITEM: TIMESTEP energy, energy_weight, force_weight, nsims
36       -7689.7828482345075827    1    1   1080
ITEM: NUMBER OF ATOMS
2         
ITEM: BOX BOUNDS xy xz yz pp pp pp
    0.0000000000000000      3.8455310684830004      0.0000000000000002
    0.0000000000000000      4.0398265257181034      0.0000000000000002
    0.0000000000000000      4.0398265257181034      0.0000000000000002
ITEM: ATOMS id type x y z
1      1          0.0000000000000000     0.0000000000000000     0.0000000000000000
2      1          1.9227655342415004     2.0199132628590517     2.0199132628590517
ITEM: TIMESTEP energy, energy_weight, force_weight, nsims
37       -7689.7956204475085542    1    1   1080
ITEM: NUMBER OF ATOMS
2         
ITEM: BOX BOUNDS xy xz yz pp pp pp
   -0.0832984508830631      3.9984114538843145     -0.0416492254415316
   -0.0420853454689910      3.9981945296062573     -0.0416492254415316
    0.0000000000000000      3.9979730264560502     -0.0420853454689910
ITEM: ATOMS id type x y z
1      1          0.0000000000000000     0.0000000000000000     0.0000000000000000
2      1          1.9575565015006255     1.9780545920686332     1.9989865132280251
ITEM: TIMESTEP energy, energy_weight, force_weight, nsims
38       -7689.7970557125981941    1    1   1080
ITEM: NUMBER OF ATOMS
2         
ITEM: BOX BOUNDS xy xz yz pp pp pp
   -0.0748939459755375      4.0025379060802120     -0.0374469729877688
   -0.0377989739771521      4.0023627289168857     -0.0374469729877688
    0.0000000000000000      4.0021842350633108     -0.0377989739771521
ITEM: ATOMS id type x y z
1      1          0.0000000000000000     0.0000000000000000     0.0000000000000000
2      1          1.9638219800523373     1.9822818774698667     2.0010921175316554
ITEM: TIMESTEP energy, energy_weight, force_weight, nsims
39       -7689.7982687966377853    1    1   1080
ITEM: NUMBER OF ATOMS
2         
ITEM: BOX BOUNDS xy xz yz pp pp pp
   -0.0665000452785389      4.0067196169045953     -0.0332500226392694
   -0.0335271045705907      4.0065816507944270     -0.0332500226392695
    0.0000000000000000      4.0064413708104745     -0.0335271045705907
ITEM: ATOMS id type x y z
1      1          0.0000000000000000     0.0000000000000000     0.0000000000000000
2      1          1.9701097858130283     1.9865272731119181     2.0032206854052372
ITEM: TIMESTEP energy, energy_weight, force_weight, nsims
40       -7689.7992670467046992    1    1   1080
ITEM: NUMBER OF ATOMS
2         
ITEM: BOX BOUNDS xy xz yz pp pp pp
   -0.0581310161063622      4.0108467509281169     -0.0290655080531811
   -0.0292769065796474      4.0107414346567198     -0.0290655080531811
    0.0000000000000000      4.0106345780204631     -0.0292769065796474
ITEM: ATOMS id type x y z
1      1          0.0000000000000000     0.0000000000000000     0.0000000000000000
2      1          1.9763578674108775     1.9907322640385361     2.0053172890102315
ITEM: TIMESTEP energy, energy_weight, force_weight, nsims
41       -7689.8000523675964359    1    1   1080
ITEM: NUMBER OF ATOMS
2         
ITEM: BOX BOUNDS xy xz yz pp pp pp
   -0.0497727211213471      4.0150250753147319     -0.0248863605606736
   -0.0250410949109821      4.0149479479146564     -0.0248863605606736
    0.0000000000000000      4.0148698569231076     -0.0250410949109821
ITEM: ATOMS id type x y z
1      1          0.0000000000000000     0.0000000000000000     0.0000000000000000
2      1          1.9826261770966922     1.9949534265018372     2.0074349284615538
ITEM: TIMESTEP energy, energy_weight, force_weight, nsims
42       -7689.8006258477698793    1    1   1080
ITEM: NUMBER OF ATOMS
2         
ITEM: BOX BOUNDS xy xz yz pp pp pp
   -0.0414399230618491      4.0191527637396369     -0.0207199615309246
   -0.0208270560326867      4.0190993545158991     -0.0207199615309246
    0.0000000000000000      4.0190453910359265     -0.0208270560326867
ITEM: ATOMS id type x y z
1      1          0.0000000000000000     0.0000000000000000     0.0000000000000000
2      1          1.9888564203388941     1.9991361492416062     2.0095226955179633
ITEM: TIMESTEP energy, energy_weight, force_weight, nsims
43       -7689.8009983717829527    1    1   1080
ITEM: NUMBER OF ATOMS
2         
ITEM: BOX BOUNDS xy xz yz pp pp pp
   -0.0331175541893539      4.0232826865255902     -0.0165587770946770
   -0.0166270695074312      4.0232486105879284     -0.0165587770946770
    0.0000000000000000      4.0232142527035863     -0.0166270695074312
ITEM: ATOMS id type x y z
1      1          0.0000000000000000     0.0000000000000000     0.0000000000000000
2      1          1.9950825661681180     2.0033107705402484     2.0116071263517932
ITEM: TIMESTEP energy, energy_weight, force_weight, nsims
44       -7689.8011665382118736    1    1   1080
ITEM: NUMBER OF ATOMS
2         
ITEM: BOX BOUNDS xy xz yz pp pp pp
   -0.0248057642883415      4.0274107979658114     -0.0124028821441708
   -0.0124411372652374      4.0273916998581267     -0.0124028821441708
    0.0000000000000000      4.0273724836659541     -0.0124411372652374
ITEM: ATOMS id type x y z
1      1          0.0000000000000000     0.0000000000000000     0.0000000000000000
2      1          2.0013025168387348     2.0074752812964447     2.0136862418329771
ITEM: TIMESTEP energy, energy_weight, force_weight, nsims
45       -7689.8011367417329893    1    1   1080
ITEM: NUMBER OF ATOMS
2         
ITEM: BOX BOUNDS xy xz yz pp pp pp
   -0.0165210293919015      4.0315899933326431     -0.0082605146959508
   -0.0082774574288905      4.0315815306448730     -0.0082605146959508
    0.0000000000000000      4.0315730331888284     -0.0082774574288905
ITEM: ATOMS id type x y z
1      1          0.0000000000000000     0.0000000000000000     0.0000000000000000
2      1          2.0075344819703709     2.0116520366079911     2.0157865165944142
ITEM: TIMESTEP energy, energy_weight, force_weight, nsims
46       -7689.8009122477142228    1    1   1080
ITEM: NUMBER OF ATOMS
2         
ITEM: BOX BOUNDS xy xz yz pp pp pp
   -0.0082468965333553      4.0357184255840179     -0.0041234482666777
   -0.0041276635064232      4.0357163190408638     -0.0041234482666777
    0.0000000000000000      4.0357142081875317     -0.0041276635064232
ITEM: ATOMS id type x y z
1      1          0.0000000000000000     0.0000000000000000     0.0000000000000000
2      1          2.0137357645253311     2.0157943277672201     2.0178571040937658
ITEM: TIMESTEP energy, energy_weight, force_weight, nsims
47       -7689.7837719253484465    1    1   1080
ITEM: NUMBER OF ATOMS
2         
ITEM: BOX BOUNDS xy xz yz pp pp pp
    0.0000000000000000      3.8498703219248003      0.0000000000000002
    0.0000000000000000      4.0398383230898576      0.0000000000000002
    0.0000000000000000      4.0398383230898576      0.0000000000000002
ITEM: ATOMS id type x y z
1      1          0.0000000000000000     0.0000000000000000     0.0000000000000000
2      1          1.9249351609624004     2.0199191615449288     2.0199191615449288
ITEM: TIMESTEP energy, energy_weight, force_weight, nsims
48       -7689.7998504590377706    1    1   1080
ITEM: NUMBER OF ATOMS
2         
ITEM: BOX BOUNDS xy xz yz pp pp pp
    0.0000000000000000      4.0521561804520703      0.0041177568081840
    0.0000000000000000      4.0480321363642835      0.0041177568081840
    0.0000000000000000      4.0439164781575982      0.0041135659996704
ITEM: ATOMS id type x y z
1      1          0.0000000000000000     0.0000000000000000     0.0000000000000000
2      1          2.0260780902260351     2.0240160681821417     2.0219582390787991
ITEM: TIMESTEP energy, energy_weight, force_weight, nsims
49       -7689.7990322123569058    1    1   1080
ITEM: NUMBER OF ATOMS
2         
ITEM: BOX BOUNDS xy xz yz pp pp pp
    0.0000000000000000      4.0645069363385709      0.0082298020437196
    0.0000000000000000      4.0562520541066185      0.0082298020437196
    0.0000000000000000      4.0480306347279793      0.0082130875817376
ITEM: ATOMS id type x y z
1      1          0.0000000000000000     0.0000000000000000     0.0000000000000000
2      1          2.0322534681692854     2.0281260270533092     2.0240153173639897
ITEM: TIMESTEP energy, energy_weight, force_weight, nsims
50       -7689.7980251185854286    1    1   1080
ITEM: NUMBER OF ATOMS
2         
ITEM: BOX BOUNDS xy xz yz pp pp pp
    0.0000000000000000      4.0768319320700650      0.0123279450248014
    0.0000000000000000      4.0644477858743047      0.0123279450248014
    0.0000000000000000      4.0521386502673185      0.0122904965657959
ITEM: ATOMS id type x y z
1      1          0.0000000000000000     0.0000000000000000     0.0000000000000000
2      1          2.0384159660350325     2.0322238929371523     2.0260693251336592
ITEM: TIMESTEP energy, energy_weight, force_weight, nsims
51       -7689.7968235993885173    1    1   1080
ITEM: NUMBER OF ATOMS
2         
ITEM: BOX BOUNDS xy xz yz pp pp pp
    0.0000000000000000      4.0891431333713903      0.0164202038306986
    0.0000000000000000      4.0726233581585651      0.0164202038306986
    0.0000000000000000      4.0562365230002140      0.0163538676650559
ITEM: ATOMS id type x y z
1      1          0.0000000000000000     0.0000000000000000     0.0000000000000000
2      1          2.0445715666856947     2.0363116790792826     2.0281182615001070
ITEM: TIMESTEP energy, energy_weight, force_weight, nsims
52       -7689.7954273826526332    1    1   1080
ITEM: NUMBER OF ATOMS
2         
ITEM: BOX BOUNDS xy xz yz pp pp pp
    0.0000000000000000      4.1013909702200344      0.0205062374346286
    0.0000000000000000      4.0807296478595285      0.0205062374346286
    0.0000000000000000      4.0602754512470804      0.0204029344369104
ITEM: ATOMS id type x y z