ITEM: TIMESTEP energy, energy_weight, force_weight, nsims
1        -15374.2392485367945483    1    1   1080
ITEM: NUMBER OF ATOMS
4         
ITEM: BOX BOUNDS xy xz yz pp pp pp
    0.0000000000000000      4.2336296628996006      0.0000000000000003
    0.0000000000000000      4.2336296628995997      0.0000000000000003
    0.0000000000000000      4.2336296628995997      0.0000000000000003
ITEM: ATOMS id type x y z
1      1          0.0000000000000000     0.0000000000000000     0.0000000000000000
2      1          2.1168148314497999     2.1168148314497999     0.0000000000000000
3      1          0.0000000000000003     2.1168148314497999     2.1168148314497999
4      1          2.1168148314497999     0.0000000000000001     2.1168148314497999
ITEM: TIMESTEP energy, energy_weight, force_weight, nsims
2        -15376.5429713198209356    1    1   1080
ITEM: NUMBER OF ATOMS
4         
ITEM: BOX BOUNDS xy xz yz pp pp pp
    0.0000000000000000      4.3970925151157010      0.0000000000000003
    0.0000000000000000      4.3970925151157001      0.0000000000000003
    0.0000000000000000      4.3970925151157001      0.0000000000000003
ITEM: ATOMS id type x y z
1      1          0.0000000000000000     0.0000000000000000     0.0000000000000000
2      1          2.1985462575578500     2.1985462575578500     0.0000000000000000
3      1          0.0000000000000003     2.1985462575578500     2.1985462575578500
4      1          2.1985462575578500     0.0000000000000001     2.1985462575578500
ITEM: TIMESTEP energy, energy_weight, force_weight, nsims
3        -15379.8493462935512071    1    1   1080
ITEM: NUMBER OF ATOMS
4         
ITEM: BOX BOUNDS xy xz yz pp pp pp
    0.0000000000000000      4.8004843320284003      0.0000000000000003
    0.0000000000000000      5.0601569310008117      0.0000000000000003
    0.0000000000000000      5.0601569310008117      0.0000000000000003
ITEM: ATOMS id type x y z
1      1          0.0000000000000000     0.0000000000000000     0.0000000000000000
2      1          2.4002421660141997     2.5300784655004058     0.0000000000000000
3      1          0.0000000000000003     2.5300784655004058     2.5300784655004058
4      1          2.4002421660141997     0.0000000000000002     2.5300784655004058
ITEM: TIMESTEP energy, energy_weight, force_weight, nsims
4        -15379.5607556958184432    1    1   1080
ITEM: NUMBER OF ATOMS
4         
ITEM: BOX BOUNDS xy xz yz pp pp pp
   -0.4310340673706999      4.8492203356950476     -0.2155170336853500
   -0.2253180348472545      4.8444287869995426     -0.2155170336853500
    0.0000000000000000      4.8391860943223115     -0.2253180348472545
ITEM: ATOMS id type x y z
1      1          0.0000000000000000     0.0000000000000000     0.0000000000000000
2      1          2.3168516510048489     2.4222143934997713     0.0000000000000000
3      1         -0.2155170336853500     2.3095553760761440     2.4195930471611558
4      1          2.3168516510048489    -0.1126590174236273     2.4195930471611558
ITEM: TIMESTEP energy, energy_weight, force_weight, nsims
5        -15379.5805609662638744    1    1   1080
ITEM: NUMBER OF ATOMS
4         
ITEM: BOX BOUNDS xy xz yz pp pp pp
   -0.4197970829507441      4.8546207358760105     -0.2098985414753720
   -0.2191788597938598      4.8500809365910431     -0.2098985414753721
    0.0000000000000000      4.8451259755452512     -0.2191788597938598
ITEM: ATOMS id type x y z
1      1          0.0000000000000000     0.0000000000000000     0.0000000000000000
2      1          2.3223610972003192     2.4250404682955216     0.0000000000000000
3      1         -0.2098985414753721     2.3154510383985918     2.4225629877726256
4      1          2.3223610972003192    -0.1095894298969299     2.4225629877726256
ITEM: TIMESTEP energy, energy_weight, force_weight, nsims
6        -15379.5997210545101552    1    1   1080
ITEM: NUMBER OF ATOMS
4         
ITEM: BOX BOUNDS xy xz yz pp pp pp
   -0.4085781917377207      4.8599628447258674     -0.2042890958688603
   -0.2130647321385792      4.8556672885840344     -0.2042890958688603
    0.0000000000000000      4.8509904388015181     -0.2130647321385792
ITEM: ATOMS id type x y z
1      1          0.0000000000000000     0.0000000000000000     0.0000000000000000
2      1          2.3278368744285034     2.4278336442920172     0.0000000000000000
3      1         -0.2042890958688603     2.3213012782227276     2.4254952194007591
4      1          2.3278368744285034    -0.1065323660692896     2.4254952194007591
ITEM: TIMESTEP energy, energy_weight, force_weight, nsims
7        -15379.6182352802661626    1    1   1080
ITEM: NUMBER OF ATOMS
4         
ITEM: BOX BOUNDS xy xz yz pp pp pp
   -0.3973867386804562      4.8653621517833754     -0.1986933693402281
   -0.2069803489119159      4.8613033039490947     -0.1986933693402281
    0.0000000000000000      4.8568949904389207     -0.2069803489119159
ITEM: ATOMS id type x y z
1      1          0.0000000000000000     0.0000000000000000     0.0000000000000000
2      1          2.3333343912215736     2.4306516519745474     0.0000000000000000
3      1         -0.1986933693402281     2.3271614775185894     2.4284474952194604
4      1          2.3333343912215736    -0.1034901744559580     2.4284474952194604
ITEM: TIMESTEP energy, energy_weight, force_weight, nsims
8        -15379.6361156165512512    1    1   1080
ITEM: NUMBER OF ATOMS
4         
ITEM: BOX BOUNDS xy xz yz pp pp pp
   -0.3862142568756398      4.8707079133629172     -0.1931071284378199
   -0.2009211458168003      4.8668783849858670     -0.1931071284378199
    0.0000000000000000      4.8627292652795617     -0.2009211458168003
ITEM: ATOMS id type x y z
1      1          0.0000000000000000     0.0000000000000000     0.0000000000000000
2      1          2.3388003924625487     2.4334391924929335     0.0000000000000000
3      1         -0.1931071284378199     2.3329786195845332     2.4313646326397809
4      1          2.3388003924625487    -0.1004605729084002     2.4313646326397809
ITEM: TIMESTEP energy, energy_weight, force_weight, nsims
9        -15379.6533758051173209    1    1   1080
ITEM: NUMBER OF ATOMS
4         
ITEM: BOX BOUNDS xy xz yz pp pp pp
   -0.3750886769667431      4.8761060984823876     -0.1875443384833716
   -0.1949018656583237      4.8724981072094797     -0.1875443384833716
    0.0000000000000000      4.8685984705583261     -0.1949018656583237
ITEM: ATOMS id type x y z
1      1          0.0000000000000000     0.0000000000000000     0.0000000000000000
2      1          2.3442808799995078     2.4362490536047399     0.0000000000000000
3      1         -0.1875443384833716     2.3387981207755781     2.4342992352791630
4      1          2.3442808799995078    -0.0974509328291619     2.4342992352791630
ITEM: TIMESTEP energy, energy_weight, force_weight, nsims
10       -15379.6700102676295501    1    1   1080
ITEM: NUMBER OF ATOMS
4         
ITEM: BOX BOUNDS xy xz yz pp pp pp
   -0.3639638670430521      4.8814504312064591     -0.1819819335215260
   -0.1888975870178694      4.8780570812770829     -0.1819819335215260
    0.0000000000000000      4.8743982797691370     -0.1888975870178694
ITEM: ATOMS id type x y z
1      1          0.0000000000000000     0.0000000000000000     0.0000000000000000
2      1          2.3497342488424664     2.4390285406385415     0.0000000000000000
3      1         -0.1819819335215260     2.3445797471296066     2.4371991398845685
4      1          2.3497342488424664    -0.0944487935089347     2.4371991398845685
ITEM: TIMESTEP energy, energy_weight, force_weight, nsims
11       -15379.6860275756771443    1    1   1080
ITEM: NUMBER OF ATOMS
4         
ITEM: BOX BOUNDS xy xz yz pp pp pp
   -0.3528825705333893      4.8867941467343581     -0.1764412852666947
   -0.1829311027935897      4.8836078369798104     -0.1764412852666947
    0.0000000000000000      4.8801805004570609     -0.1829311027935897
ITEM: ATOMS id type x y z
1      1          0.0000000000000000     0.0000000000000000     0.0000000000000000
2      1          2.3551764307338319     2.4418039184899052     0.0000000000000000
3      1         -0.1764412852666947     2.3503383670931104     2.4400902502285304
4      1          2.3551764307338319    -0.0914655513967948     2.4400902502285304
ITEM: TIMESTEP energy, energy_weight, force_weight, nsims
12       -15379.7014277292601037    1    1   1080
ITEM: NUMBER OF ATOMS
4         
ITEM: BOX BOUNDS xy xz yz pp pp pp
   -0.3418067838284939      4.8921368274169001     -0.1709033919142469
   -0.1769818106108044      4.8891507206058700     -0.1709033919142469
    0.0000000000000000      4.8859463983463662     -0.1769818106108044
ITEM: ATOMS id type x y z
1      1          0.0000000000000000     0.0000000000000000     0.0000000000000000
2      1          2.3606167177513266     2.4445753603029350     0.0000000000000000
3      1         -0.1709033919142469     2.3560844549975326     2.4429731991731831
4      1          2.3606167177513266    -0.0884909053054022     2.4429731991731831
ITEM: TIMESTEP energy, energy_weight, force_weight, nsims
13       -15379.7162141298067581    1    1   1080
ITEM: NUMBER OF ATOMS
4         
ITEM: BOX BOUNDS xy xz yz pp pp pp
   -0.3307751917739036      4.8974836642302009     -0.1653875958869518
   -0.1710702932714565      4.8946903052724799     -0.1653875958869518
    0.0000000000000000      4.8916999232668017     -0.1710702932714565
ITEM: ATOMS id type x y z
1      1          0.0000000000000000     0.0000000000000000     0.0000000000000000
2      1          2.3660480341716243     2.4473451526362400     0.0000000000000000
3      1         -0.1653875958869518     2.3618100060005118     2.4458499616334008
4      1          2.3660480341716243    -0.0855351466357283     2.4458499616334008
ITEM: TIMESTEP energy, energy_weight, force_weight, nsims
14       -15379.8522870291308209    1    1   1080
ITEM: NUMBER OF ATOMS
4         
ITEM: BOX BOUNDS xy xz yz pp pp pp
    0.0000000000000000      4.8059348576931002      0.0000000000000003
    0.0000000000000000      5.0601640057302069      0.0000000000000003
    0.0000000000000000      5.0601640057302069      0.0000000000000003
ITEM: ATOMS id type x y z
1      1          0.0000000000000000     0.0000000000000000     0.0000000000000000
2      1          2.4029674288465497     2.5300820028651034     0.0000000000000000
3      1          0.0000000000000003     2.5300820028651034     2.5300820028651034
4      1          2.4029674288465497     0.0000000000000002     2.5300820028651034
ITEM: TIMESTEP energy, energy_weight, force_weight, nsims
15       -15379.7304063695155492    1    1   1080
ITEM: NUMBER OF ATOMS
4         
ITEM: BOX BOUNDS xy xz yz pp pp pp
   -0.3197496503225762      4.9028293770043794     -0.1598748251612881
   -0.1651759745292859      4.9002220296938379     -0.1598748251612881
    0.0000000000000000      4.8974373745597912     -0.1651759745292859
ITEM: ATOMS id type x y z
1      1          0.0000000000000000     0.0000000000000000     0.0000000000000000
2      1          2.3714772759215457     2.4501110148469190     0.0000000000000000
3      1         -0.1598748251612881     2.3675230275822758     2.4487186872798956
4      1          2.3714772759215457    -0.0825879872646429     2.4487186872798956
ITEM: TIMESTEP energy, energy_weight, force_weight, nsims
16       -15379.7440085300986539    1    1   1080
ITEM: NUMBER OF ATOMS
4         
ITEM: BOX BOUNDS xy xz yz pp pp pp
   -0.3087463396428231      4.9081211648401144     -0.1543731698214115
   -0.1593074255313377      4.9056928453777831     -0.1543731698214115
    0.0000000000000000      4.9031054891121144     -0.1593074255313377
ITEM: ATOMS id type x y z
1      1          0.0000000000000000     0.0000000000000000     0.0000000000000000
2      1          2.3768739975093514     2.4528464226888915     0.0000000000000000
3      1         -0.1543731698214115     2.3731927099232228     2.4515527445560572
4      1          2.3768739975093514    -0.0796537127656689     2.4515527445560572
ITEM: TIMESTEP energy, energy_weight, force_weight, nsims
17       -15379.7570234687536868    1    1   1080
ITEM: NUMBER OF ATOMS
4         
ITEM: BOX BOUNDS xy xz yz pp pp pp
   -0.2977916819765287      4.9134649577351306     -0.1488958409882643
   -0.1534784125556551      4.9112083970676181     -0.1488958409882643
    0.0000000000000000      4.9088096618535619     -0.1534784125556551
ITEM: ATOMS id type x y z
1      1          0.0000000000000000     0.0000000000000000     0.0000000000000000
2      1          2.3822845583734331     2.4556041985338091     0.0000000000000000
3      1         -0.1488958409882643     2.3788649922559815     2.4544048309267810
4      1          2.3822845583734331    -0.0767392062778275     2.4544048309267810
ITEM: TIMESTEP energy, energy_weight, force_weight, nsims
18       -15379.7694586686156981    1    1   1080
ITEM: NUMBER OF ATOMS
4         
ITEM: BOX BOUNDS xy xz yz pp pp pp
   -0.2868407957558653      4.9187545589903117     -0.1434203978779326
   -0.1476650153217148      4.9166631978467379     -0.1434203978779326
    0.0000000000000000      4.9144452427828051     -0.1476650153217148
ITEM: ATOMS id type x y z
1      1          0.0000000000000000     0.0000000000000000     0.0000000000000000
2      1          2.3876670805561897     2.4583315989233689     0.0000000000000000
3      1         -0.1434203978779326     2.3844990912625117     2.4572226213914026
4      1          2.3876670805561897    -0.0738325076608574     2.4572226213914026
ITEM: TIMESTEP energy, energy_weight, force_weight, nsims
19       -15379.7813292320079199    1    1   1080
ITEM: NUMBER OF ATOMS
4         
ITEM: BOX BOUNDS xy xz yz pp pp pp
   -0.2759195834471370      4.9241008273670497     -0.1379597917235685
   -0.1418807432331017      4.9221678205791051     -0.1379597917235685
    0.0000000000000000      4.9201225501651953     -0.1418807432331017
ITEM: ATOMS id type x y z
1      1          0.0000000000000000     0.0000000000000000     0.0000000000000000
2      1          2.3930705178217404     2.4610839102895525     0.0000000000000000
3      1         -0.1379597917235685     2.3901435386730019     2.4600612750825976
4      1          2.3930705178217404    -0.0709403716165509     2.4600612750825976
ITEM: TIMESTEP energy, energy_weight, force_weight, nsims
20       -15379.7926274036799441    1    1   1080
ITEM: NUMBER OF ATOMS
4         
ITEM: BOX BOUNDS xy xz yz pp pp pp
   -0.2650222910387576      4.9293929596948187     -0.1325111455193788
   -0.1361224809381027      4.9276115662054760     -0.1325111455193788
    0.0000000000000000      4.9257310541264063     -0.1361224809381027
ITEM: ATOMS id type x y z
1      1          0.0000000000000000     0.0000000000000000     0.0000000000000000
2      1          2.3984409070877200     2.4638057831027380     0.0000000000000000
3      1         -0.1325111455193788     2.3957445426336865     2.4628655270632032
4      1          2.3984409070877200    -0.0680612404690514     2.4628655270632032
ITEM: TIMESTEP energy, energy_weight, force_weight, nsims
21       -15379.8033697825885611    1    1   1080
ITEM: NUMBER OF ATOMS
4         
ITEM: BOX BOUNDS xy xz yz pp pp pp
   -0.2541523027747275      4.9346838183549417     -0.1270761513873638
   -0.1303918110105000      4.9330473379932904     -0.1270761513873638
    0.0000000000000000      4.9313237588404277     -0.1303918110105000
ITEM: ATOMS id type x y z
1      1          0.0000000000000000     0.0000000000000000     0.0000000000000000
2      1          2.4038038334837890     2.4665236689966452     0.0000000000000000
3      1         -0.1270761513873638     2.4013277634913952     2.4656618794202139
4      1          2.4038038334837890    -0.0651959055052500     2.4656618794202139
ITEM: TIMESTEP energy, energy_weight, force_weight, nsims
22       -15379.8135601783269522    1    1   1080
ITEM: NUMBER OF ATOMS
4         
ITEM: BOX BOUNDS xy xz yz pp pp pp
   -0.2432904102640147      4.9399732256460327     -0.1216452051320073
   -0.1246784846812646      4.9384752620791836     -0.1216452051320074
    0.0000000000000000      4.9369011727626928     -0.1246784846812646
ITEM: ATOMS id type x y z
1      1          0.0000000000000000     0.0000000000000000     0.0000000000000000
2      1          2.4091640102570127     2.4692376310395918     0.0000000000000000
3      1         -0.1216452051320074     2.4068983886989597     2.4684505863813464
4      1          2.4091640102570127    -0.0623392423406323     2.4684505863813464
ITEM: TIMESTEP energy, energy_weight, force_weight, nsims
23       -15379.8232063461418875    1    1   1080
ITEM: NUMBER OF ATOMS
4         
ITEM: BOX BOUNDS xy xz yz pp pp pp
   -0.2324758908767722      4.9452663212630750     -0.1162379454383861
   -0.1190029835861529      4.9439000524139933     -0.1162379454383861
    0.0000000000000000      4.9424676041585416     -0.1190029835861529
ITEM: ATOMS id type x y z
1      1          0.0000000000000000     0.0000000000000000     0.0000000000000000
2      1          2.4145141879123444     2.4719500262069967     0.0000000000000000
3      1         -0.1162379454383861     2.4124485344139202     2.4712338020792708
4      1          2.4145141879123444    -0.0595014917930764     2.4712338020792708
ITEM: TIMESTEP energy, energy_weight, force_weight, nsims
24       -15379.8323209393329307    1    1   1080
ITEM: NUMBER OF ATOMS
4         
ITEM: BOX BOUNDS xy xz yz pp pp pp
   -0.2216699942999914      4.9505578767880856     -0.1108349971499957
   -0.1133448237985766      4.9493170129660635     -0.1108349971499957
    0.0000000000000000      4.9480189819516047     -0.1133448237985766
ITEM: ATOMS id type x y z
1      1          0.0000000000000000     0.0000000000000000     0.0000000000000000
2      1          2.4198614398190448     2.4746585064830318     0.0000000000000000
3      1         -0.1108349971499957     2.4179860945837435     2.4740094909758024
4      1          2.4198614398190448    -0.0566724118992883     2.4740094909758024
ITEM: TIMESTEP energy, energy_weight, force_weight, nsims
25       -15379.8551620491889480    1    1   1080
ITEM: NUMBER OF ATOMS
4         
ITEM: BOX BOUNDS xy xz yz pp pp pp
    0.0000000000000000      4.8113853833578002      0.0000000000000003
    0.0000000000000000      5.0601821215312315      0.0000000000000003
    0.0000000000000000      5.0601821215312315      0.0000000000000003
ITEM: ATOMS id type x y z
1      1          0.0000000000000000     0.0000000000000000     0.0000000000000000
2      1          2.4056926916788997     2.5300910607656157     0.0000000000000000
3      1          0.0000000000000003     2.5300910607656157     2.5300910607656157
4      1          2.4056926916788997     0.0000000000000002     2.5300910607656157
ITEM: TIMESTEP energy, energy_weight, force_weight, nsims
26       -15379.8409152506319515    1    1   1080
ITEM: NUMBER OF ATOMS
4         
ITEM: BOX BOUNDS xy xz yz pp pp pp
   -0.2108902715268576      4.9557999970355393     -0.1054451357634288
   -0.1077130887047765      4.9546780858055026     -0.1054451357634288
    0.0000000000000000      4.9535071236935728     -0.1077130887047765
ITEM: ATOMS id type x y z
1      1          0.0000000000000000     0.0000000000000000     0.0000000000000000
2      1          2.4251774306360554     2.4773390429027513     0.0000000000000000
3      1         -0.1054451357634288     2.4234824985503631     2.4767535618467864
4      1          2.4251774306360554    -0.0538565443523883     2.4767535618467864
ITEM: TIMESTEP energy, energy_weight, force_weight, nsims
27       -15379.8489887358064152    1    1   1080
ITEM: NUMBER OF ATOMS
4         
ITEM: BOX BOUNDS xy xz yz pp pp pp
   -0.2001219987747706      4.9610884566472491     -0.1000609993873853
   -0.1020999149323469      4.9600792807252772     -0.1000609993873853
    0.0000000000000000      4.9590283401540454     -0.1020999149323469
ITEM: ATOMS id type x y z
1      1          0.0000000000000000     0.0000000000000000     0.0000000000000000
2      1          2.4305137286299319     2.4800396403626386     0.0000000000000000
3      1         -0.1000609993873853     2.4289896828964652     2.4795141700770227
4      1          2.4305137286299319    -0.0510499574661734     2.4795141700770227
ITEM: TIMESTEP energy, energy_weight, force_weight, nsims
28       -15379.8565545923866011    1    1   1080
ITEM: NUMBER OF ATOMS
4         
ITEM: BOX BOUNDS xy xz yz pp pp pp
   -0.1894003265193708      4.9663274875711743     -0.0947001632596854
   -0.0965234983543579      4.9654245128572443     -0.0947001632596854
    0.0000000000000000      4.9644862581287335     -0.0965234983543579
ITEM: ATOMS id type x y z
1      1          0.0000000000000000     0.0000000000000000     0.0000000000000000
2      1          2.4358136621557445     2.4827122564286221     0.0000000000000000
3      1         -0.0947001632596854     2.4344505072514431     2.4822431290643667
4      1          2.4358136621557445    -0.0482617491771789     2.4822431290643667
ITEM: TIMESTEP energy, energy_weight, force_weight, nsims
29       -15379.8636154054547660    1    1   1080
ITEM: NUMBER OF ATOMS
4         
ITEM: BOX BOUNDS xy xz yz pp pp pp
   -0.1786903937031699      4.9716226904955567     -0.0893451968515849
   -0.0909655125659413      4.9708198129131409     -0.0893451968515850
    0.0000000000000000      4.9699874132610695     -0.0909655125659413
ITEM: ATOMS id type x y z
1      1          0.0000000000000000     0.0000000000000000     0.0000000000000000
2      1          2.4411387468219861     2.4854099064565705     0.0000000000000000
3      1         -0.0893451968515850     2.4399271501735997     2.4849937066305348
4      1          2.4411387468219861    -0.0454827562829707     2.4849937066305348
ITEM: TIMESTEP energy, energy_weight, force_weight, nsims
30       -15379.8701815153399366    1    1   1080
ITEM: NUMBER OF ATOMS
4         
ITEM: BOX BOUNDS xy xz yz pp pp pp
   -0.1679884731069247      4.9768582541802378     -0.0839942365534623
   -0.0854239705017985      4.9761494200262684     -0.0839942365534623
    0.0000000000000000      4.9754161429664832     -0.0854239705017985
ITEM: ATOMS id type x y z
1      1          0.0000000000000000     0.0000000000000000     0.0000000000000000
2      1          2.4464320088133875     2.4880747100131342     0.0000000000000000
3      1         -0.0839942365534623     2.4453627247622349     2.4877080714832416
4      1          2.4464320088133875    -0.0427119852508992     2.4877080714832416
ITEM: TIMESTEP energy, energy_weight, force_weight, nsims
31       -15379.8762408129750838    1    1   1080
ITEM: NUMBER OF ATOMS
4         
ITEM: BOX BOUNDS xy xz yz pp pp pp
   -0.1573363118041411      4.9820971633292510     -0.0786681559020706
   -0.0799203032373866      4.9814760328742267     -0.0786681559020706
    0.0000000000000000      4.9808348909827131     -0.0799203032373866
ITEM: ATOMS id type x y z
1      1          0.0000000000000000     0.0000000000000000     0.0000000000000000
2      1          2.4517145037135903     2.4907380164371133     0.0000000000000000
3      1         -0.0786681559020706     2.4507778648184200     2.4904174454913566
4      1          2.4517145037135903    -0.0399601516186933     2.4904174454913566
ITEM: TIMESTEP energy, energy_weight, force_weight, nsims
32       -15379.8818323467094160    1    1   1080
ITEM: NUMBER OF ATOMS
4         
ITEM: BOX BOUNDS xy xz yz pp pp pp
   -0.1466946985874393      4.9873392156585581     -0.0733473492937197
   -0.0744340974668710      4.9867998374104916     -0.0733473492937197
    0.0000000000000000      4.9862442964150491     -0.0744340974668710
ITEM: ATOMS id type x y z
1      1          0.0000000000000000     0.0000000000000000     0.0000000000000000
2      1          2.4569959331824194     2.4933999187052458     0.0000000000000000
3      1         -0.0733473492937197     2.4561828699718102     2.4931221482075245
4      1          2.4569959331824194    -0.0372170487334355     2.4931221482075245
ITEM: TIMESTEP energy, energy_weight, force_weight, nsims
33       -15379.8869453680435981    1    1   1080
ITEM: NUMBER OF ATOMS
4         
ITEM: BOX BOUNDS xy xz yz pp pp pp
   -0.1360638252880007      4.9925744036709405     -0.0680319126440004
   -0.0689653608496259      4.9921108596516817     -0.0680319126440004
    0.0000000000000000      4.9916344631848917     -0.0689653608496259
ITEM: ATOMS id type x y z
1      1          0.0000000000000000     0.0000000000000000     0.0000000000000000
2      1          2.4622712455134699     2.4960554298258408     0.0000000000000000
3      1         -0.0680319126440004     2.4615727494010278     2.4958172315924458
4      1          2.4622712455134699    -0.0344826804248130     2.4958172315924458
ITEM: TIMESTEP energy, energy_weight, force_weight, nsims
34       -15379.8915827341697877    1    1   1080
ITEM: NUMBER OF ATOMS
4         
ITEM: BOX BOUNDS xy xz yz pp pp pp
   -0.1254637486965474      4.9978127310460367     -0.0627318743482737
   -0.0635242807132930      4.9974190145060478     -0.0627318743482737
    0.0000000000000000      4.9970152563611858     -0.0635242807132930
ITEM: ATOMS id type x y z
1      1          0.0000000000000000     0.0000000000000000     0.0000000000000000
2      1          2.4675404283488813     2.4987095072530239     0.0000000000000000
3      1         -0.0627318743482737     2.4669473668963775     2.4985076281805929
4      1          2.4675404283488813    -0.0317621403566465     2.4985076281805929
ITEM: TIMESTEP energy, energy_weight, force_weight, nsims
35       -15379.8957694795790303    1    1   1080
ITEM: NUMBER OF ATOMS
4         
ITEM: BOX BOUNDS xy xz yz pp pp pp
   -0.1148947569869477      5.0030541589616462     -0.0574473784934739
   -0.0581108468198328      5.0027243294236845     -0.0574473784934738
    0.0000000000000000      5.0023868148804258     -0.0581108468198328
ITEM: ATOMS id type x y z
1      1          0.0000000000000000     0.0000000000000000     0.0000000000000000
2      1          2.4728033902340862     2.5013621647118423     0.0000000000000000
3      1         -0.0574473784934739     2.4723067413019257     2.5011934074402129
4      1          2.4728033902340862    -0.0290554234099164     2.5011934074402129
ITEM: TIMESTEP energy, energy_weight, force_weight, nsims
36       -15379.8579495846079226    1    1   1080
ITEM: NUMBER OF ATOMS
4         
ITEM: BOX BOUNDS xy xz yz pp pp pp
    0.0000000000000000      4.8167829912976003      0.0000000000000003
    0.0000000000000000      5.0601509519329104      0.0000000000000003
    0.0000000000000000      5.0601509519329104      0.0000000000000003
ITEM: ATOMS id type x y z
1      1          0.0000000000000000     0.0000000000000000     0.0000000000000000
2      1          2.4083914956487997     2.5300754759664552     0.0000000000000000
3      1          0.0000000000000003     2.5300754759664552     2.5300754759664552
4      1          2.4083914956487997     0.0000000000000002     2.5300754759664552
ITEM: TIMESTEP energy, energy_weight, force_weight, nsims
37       -15379.8994903658876865    1    1   1080
ITEM: NUMBER OF ATOMS
4         
ITEM: BOX BOUNDS xy xz yz pp pp pp
   -0.1043361080543001      5.0082406704498377     -0.0521680540271501
   -0.0527143194837974      5.0079689602958668     -0.0521680540271501
    0.0000000000000000      5.0076915148407659     -0.0527143194837974
ITEM: ATOMS id type x y z
1      1          0.0000000000000000     0.0000000000000000     0.0000000000000000
2      1          2.4780363082113439     2.5039844801479334     0.0000000000000000
3      1         -0.0521680540271501     2.4776273204060346     2.5038457574203830
4      1          2.4780363082113439    -0.0263571597418987     2.5038457574203830
ITEM: TIMESTEP energy, energy_weight, force_weight, nsims
38       -15379.9027588627322984    1    1   1080
ITEM: NUMBER OF ATOMS
4         
ITEM: BOX BOUNDS xy xz yz pp pp pp
   -0.0938102692553698      5.0134781093901850     -0.0469051346276849
   -0.0473460421958746      5.0132586868902091     -0.0469051346276849
    0.0000000000000000      5.0130351099876140     -0.0473460421958746
ITEM: ATOMS id type x y z
1      1          0.0000000000000000     0.0000000000000000     0.0000000000000000
2      1          2.4832864873812501     2.5066293434451046     0.0000000000000000
3      1         -0.0469051346276849     2.4829563223471673     2.5065175549938070
4      1          2.4832864873812501    -0.0236730210979373     2.5065175549938070
ITEM: TIMESTEP energy, energy_weight, force_weight, nsims
39       -15379.9055853104473499    1    1   1080
ITEM: NUMBER OF ATOMS
4         
ITEM: BOX BOUNDS xy xz yz pp pp pp
   -0.0832954434224120      5.0186655627293435     -0.0416477217112060
   -0.0419947840663830      5.0184927515940183     -0.0416477217112060
    0.0000000000000000      5.0183170421878405     -0.0419947840663830
ITEM: ATOMS id type x y z
1      1          0.0000000000000000     0.0000000000000000     0.0000000000000000
2      1          2.4885089205090689     2.5092463757970092     0.0000000000000000
3      1         -0.0416477217112060     2.4882489837638175     2.5091585210939202
4      1          2.4885089205090689    -0.0209973920331915     2.5091585210939202
ITEM: TIMESTEP energy, energy_weight, force_weight, nsims
40       -15379.9079792330248893    1    1   1080
ITEM: NUMBER OF ATOMS
4         
ITEM: BOX BOUNDS xy xz yz pp pp pp
   -0.0728137109415760      5.0239038557090749     -0.0364068554707880
   -0.0366716489017411      5.0237719387212669     -0.0364068554707880
    0.0000000000000000      5.0236380923042283     -0.0366716489017411
ITEM: ATOMS id type x y z
1      1          0.0000000000000000     0.0000000000000000     0.0000000000000000
2      1          2.4937485001191435     2.5118859693606335     0.0000000000000000
3      1         -0.0364068554707880     2.4935501449097628     2.5118190461521142
4      1          2.4937485001191435    -0.0183358244508706     2.5118190461521142
ITEM: TIMESTEP energy, energy_weight, force_weight, nsims
41       -15379.9099419910271536    1    1   1080