ITEM: TIMESTEP energy, energy_weight, force_weight, nsims
1        -123036.7735561439621961    1    1   85
ITEM: NUMBER OF ATOMS
32        
ITEM: BOX BOUNDS xy xz yz pp pp pp
   -1.9128255028752990     10.3162084026055663      3.2211056834633669
   -1.1721819202294863      6.3217861884747339     -1.9128255028752990
    0.0000000000000000     36.4800311435844264     -1.1721819202294863
ITEM: ATOMS id type x y z
1      1          0.8379876824421750     0.5512142731885260    14.6002590953242333
2      1          2.6406453968665371     1.5725954612048165    16.3572548571790115
3      1          4.5147025489741708     0.6258008310132365    13.7905688110568132
4      1          6.1757150517341222     1.6365422029919015    17.1897672488528244
5      1          2.4795376089332470     3.7328378385506831    14.3579982319996660
6      1          4.1281471626298663     4.8050696277550662    16.7218544481589291
7      1          6.0616059337227020     3.6867466322665909    13.8201738366627040
8      1          7.7631229588856918     4.8150829462225913    16.9766899620326299
9      1          0.6649253559374023     0.4883786244872588    19.7585101652533019
10     1          2.3361328117944886     1.3865625774191801    22.2154867665602218
11     1          4.2639992229240971     0.5233347765639287    19.3152876125117530
12     1          5.9187659067603873     1.4147088499060172    22.4540170248750641
13     1          2.2241387439036449     3.5576214388603784    20.0220087995470770
14     1          3.9974731083000647     4.6236031520794691    22.8080094372898650
15     1          5.8898370444436292     3.4928481176065134    19.8490585756652678
16     1          7.4500742557322441     4.5848057113906560    22.1281992653579742
17     1          0.5179914547061427     0.3276929951657578    25.4837997159654002
18     1          2.0113544848257545     1.3033930738351234    27.7417643620825558
19     1          3.8388074547227027     0.2127544596464699    25.4061970299747841
20     1          5.5536107692375580     1.2350771677935908    27.7056566748345716
21     1          1.9815564724259012     3.3475794369834366    25.1066488882753163
22     1          3.6103784941491037     4.4537343313085822    27.3085267473976572
23     1          5.6218656573957064     3.4064730466139483    25.1415837550438326
24     1          7.1912115615551562     4.4480894675852323    27.7284135072959472
25     1          1.3390275177317430     0.7546450583517711     8.6019372207946478
26     1          2.7440834803883671     1.6909318414163017    11.3346749224248331
27     1          4.9094286556098403     0.8016288285579308     8.9507665269607308
28     1          6.4243969830195118     1.6702723213187036    11.0103194635781598
29     1          2.8687451446739680     3.9282504481310259     9.1580485338799242
30     1          4.5535446888101152     4.9343154379075029    11.4302729174420126
31     1          6.5740170901402388     4.0207521403215702     8.5975318715163311
32     1          7.8982165526992469     4.8617233134571443    11.5047395680307698
ITEM: TIMESTEP energy, energy_weight, force_weight, nsims
2        -123033.9466327725531301    1    1   85
ITEM: NUMBER OF ATOMS
32        
ITEM: BOX BOUNDS xy xz yz pp pp pp
    0.0000000000000000     12.8292654053148603      4.2039051219135066
    0.0000000000000000      6.4896421286042010      1.5302575642591525
    0.0000000000000000     36.5086953585697671      0.7740757066584154
ITEM: ATOMS id type x y z
1      1          2.5844138697762475     1.2780770378229520    14.4464599727019287
2      1          4.3572430628590642     2.2340874969364259    17.1493350964975200
3      1          5.9535865423751213     1.3149971143322805    13.7594390478765760
4      1          7.9883882131568251     2.1996833438513055    17.4264918035256429
5      1          4.6551444312174155     4.1687013507519382    14.2068001740341998
6      1          6.4458582497243739     5.0520891764733609    17.2239933148596940
7      1          8.0894075761616993     4.0548157284761714    14.6624363184931621
8      1         10.0249154129198246     5.1164261489099987    16.8560391593141610
9      1          2.6681623337421865     1.2942701907588503    19.4164247542217616
10     1          4.6571913683518877     2.4435391862671354    22.6226889018172272
11     1          6.3481820991207591     1.4219671399876996    19.7001344981212867
12     1          8.2624500363788584     2.3369104350525065    22.2700026978130232
13     1          4.8898419150433767     4.3072105270144885    19.6090511169642987
14     1          6.8508729648130711     5.2615153234342804    22.2729244611127655
15     1          8.4440726043142771     4.2888278253794638    19.4595984542677449
16     1         10.2405206848388453     5.1837522881222107    22.8381068630244641
17     1          3.0427837573128942     1.5326450663241427    25.5521220075993796
18     1          4.7853431136650340     2.4262966676390758    27.9600061741720118
19     1          6.4633363257627083     1.5098449537361791    25.4373218265831156
20     1          8.4944634428461683     2.5115918639977877    27.5361418996893690
21     1          5.0448592668025549     4.3260820812268630    24.5921141676139428
22     1          7.0762772830975003     5.3106496192746127    28.0029187744379264
23     1          8.5910306288947815     4.4073940869190480    25.1131139458729997
24     1         10.7474210749744241     5.4296586152238726    27.9391848857324163
25     1          2.1351611892336981     1.1027655637562113     8.2122500561101131
26     1          4.3445974612827367     2.2253938675746610    11.6540489096523991
27     1          5.6971290880198229     1.1131982027944380     8.5248155827683885
28     1          7.8381238707092002     2.1230016021936327    11.4214444811285833
29     1          4.4223314066736581     4.0695479997621984     9.1568806799723550
30     1          6.3568615382770854     5.0834381783276186    11.8802982546706772
31     1          7.9023622212180422     3.9346048221262895     8.7377566436163701
32     1          9.9712061948461894     4.9896842005071456    11.7299963081786398
ITEM: TIMESTEP energy, energy_weight, force_weight, nsims
3        -123034.9006655454286374    1    1   85
ITEM: NUMBER OF ATOMS
32        
ITEM: BOX BOUNDS xy xz yz pp pp pp
    0.0000000000000000     13.5434589119697151      4.4379326866889528
    0.0000000000000000      6.8509145882761970      1.6154456074849639
    0.0000000000000000     38.5411011384618050      0.8171677954015233
ITEM: ATOMS id type x y z
1      1          2.6288325428470043     1.3468363363695695    15.2839192080221213
2      1          4.7566618322583265     2.4857547758616838    18.2513266140434105
3      1          6.2394483748973224     1.2538162761691016    14.5496396407693762
4      1          8.5352749295093719     2.3787986716637448    17.4976080405632999
5      1          4.7866431269552399     4.3409219115353244    14.8664805370150024
6      1          6.9898540857201832     5.3723936465490336    17.7098844153522528
7      1          8.4836150944803741     4.3102208200910406    15.0283217049559639
8      1         10.7007276428719464     5.4218723701021307    17.7315689477488334
9      1          2.9578343339836843     1.4656627203305910    21.1191339240414990
10     1          4.8969802535440516     2.4382407004546343    23.2813928670286430
11     1          6.6159694844974846     1.4398436634329870    20.5534395933179752
12     1          8.8375730852274881     2.5435527319569666    23.3093892903618425
13     1          5.0741498714693316     4.5292225382667102    21.2692606058962284
14     1          7.1816375999388447     5.4955088506718051    23.9377561216467072
15     1          8.8452009833286507     4.4796614238268173    20.6237040395935196
16     1         10.9576733604493075     5.6073941769243154    23.8740709621858365
17     1          3.1335411391643091     1.5737445836453843    26.0864767439171885
18     1          5.2099435350538457     2.6985577033180652    28.9048787331522341
19     1          6.7909976883741372     1.5321379348215904    26.6280163136563779
20     1          8.8636423108177258     2.5814031053509359    29.0485145111435799
21     1          5.1550959217139125     4.4964481925074216    26.1064617770215897
22     1          7.4437552181827940     5.6486510389832576    29.9044809241452825
23     1          9.1562370670954856     4.6315190633123180    26.1410704435241783
24     1         11.2079289380188527     5.6882937886690659    29.4162579952677454
25     1          2.4413438408545867     1.2702247957785069     8.8213435785448464
26     1          4.4685626223673678     2.1906283723351083    11.5061787051630482
27     1          5.9787126765273566     1.1457344128543081     9.4849774544186065
28     1          8.1410779786592737     2.2134012134454548    12.1257109863592252
29     1          4.5884091553085327     4.2470786914749601     9.6349932830801919
30     1          6.7062316970144806     5.2450555349739494    11.4919947394971302
31     1          8.2715461949245359     4.2366877026338923     9.3818944709081293
32     1         10.5087800958877544     5.3682164285884895    12.3383731002999930
ITEM: TIMESTEP energy, energy_weight, force_weight, nsims
4        -123037.2521111307723913    1    1   85
ITEM: NUMBER OF ATOMS
32        
ITEM: BOX BOUNDS xy xz yz pp pp pp
   -1.9246667084972990     10.3800701321522695      3.2410457013430687
   -1.1794382262139915      6.3609207410220128     -1.9246667084972990
    0.0000000000000000     36.7058580939355252     -1.1794382262139915
ITEM: ATOMS id type x y z
1      1          0.9062984375887849     0.5434525235758058    14.6614730135531861
2      1          2.5217511531095584     1.5896208695203335    17.0873906166060046
3      1          4.4864328074439861     0.5762920359575280    14.4005173979240464
4      1          6.0037267926509053     1.4944219787354929    17.0039082927170107
5      1          2.6859001696520406     3.7991460752460089    14.5505639856059048
6      1          4.1437489262284979     4.6918239681232530    16.5270835702515022
7      1          6.2205068390046421     3.7007881661505353    14.4122361065272191
8      1          7.7511093935554767     4.7732531085859486    16.5949221499052655
9      1          0.7202618860438849     0.3337743787258379    19.8416890654271860
10     1          2.3156939214508974     1.4755321200915716    22.3200520836560585
11     1          4.2688203508416169     0.3455480578171284    19.7437402224315974
12     1          5.8942862620290430     1.4618116290379994    22.5125937142623087
13     1          2.4040043675624503     3.6021304180289677    19.7861253243797570
14     1          3.9991701173581933     4.6606385677021489    22.6391629062010153
15     1          5.8008143012540154     3.5604656436458786    19.6874190308920554
16     1          7.5866619657917855     4.6117391059608783    22.0606127968160237
17     1          0.3271636421029086     0.2227675461438564    25.0498643925820055
18     1          2.0633843783099088     1.1774207379098411    27.9151282676434676
19     1          3.9836398836114109     0.2219315663830087    24.9298952287295883
20     1          5.6794987173939457     1.2481156412383725    27.9725417299209234
21     1          2.0989652760730624     3.4462319720211712    25.6717619444084306
22     1          3.5979954950786430     4.4797949425282191    27.5954841599735339
23     1          5.5303773472783169     3.4951200113233525    25.0821463471556818
24     1          7.2881650762907917     4.4790760427680372    28.3075704352392528
25     1          1.3235522845938470     0.7045895857109294     8.5431284697631966
26     1          2.7481124841518842     1.7084549284882544    11.0373815285701635
27     1          4.8428928641036064     0.7348690439317636     8.6146208021206494
28     1          6.4632422364814719     1.7813943410978319    11.7466942928445164
29     1          2.9881814560038067     4.0239882218894580     8.3372040239589484
30     1          4.5694303915741310     5.0095798038312411    11.9449985439713195
31     1          6.4820885470763647     3.9956070302647766     8.2262036164989532
32     1          7.9521250461610995     4.8831077026247973    11.5381384026350720
ITEM: TIMESTEP energy, energy_weight, force_weight, nsims
5        -123038.5102356092538685    1    1   85
ITEM: NUMBER OF ATOMS
32        
ITEM: BOX BOUNDS xy xz yz pp pp pp
   -1.5397305111880679     10.4899468571668528      3.3509224263576534
   -0.9252746784283183      6.3037300163067993     -1.5397305111880679
    0.0000000000000000     36.7313015770069384     -0.9252746784283183
ITEM: ATOMS id type x y z
1      1          1.2384029985002565     0.6847994960862832    14.1487661264935465
2      1          2.8009555429887336     1.6936078993795005    16.9131927092747176
3      1          4.6543669347396834     0.7281098156006733    14.0878880956598227
4      1          6.3067019921773468     1.7348621798578177    16.5487562206185537
5      1          2.7632757720429226     3.8706555412620953    14.2579682136994190
6      1          4.5464891365657252     4.8742431759890623    16.8936703330662255
7      1          6.4724144550701759     3.8169843555912717    14.0142162191436430
8      1          8.0943758191645170     4.9021867454161354    17.5187040583251026
9      1          0.8653875441855896     0.6341431204325904    19.5146596369835770
10     1          2.5290522333949470     1.6231421587351982    22.4741871906294470
11     1          4.6001353356510410     0.5528738941171446    19.3688243598134484
12     1          5.9727141566210271     1.4553201141230649    22.8662559872474986
13     1          2.5929415047335880     3.6422752941107368    19.5994933781973266
14     1          4.1610389294974750     4.7073449211382750    22.3926987962639714
15     1          6.1600350186610298     3.6457841246184794    19.9395493845198324
16     1          7.7561474030962980     4.7259492188049634    22.8375778122064936
17     1          0.5596095636676131     0.3432757063408019    24.9042090188275331
18     1          2.2250133192283155     1.3489093854696383    27.8313532437528082
19     1          4.3291222624037760     0.3932974227225958    25.1624025459043956
20     1          5.9354720078728249     1.4593779356095369    27.9202962074289331
21     1          2.2824660461401391     3.4923022383805122    25.0021521506035818
22     1          3.9683987803540766     4.5430466989851892    28.0327979517267281
23     1          5.9871578308494406     3.6518401590431351    25.4250672439822729
24     1          7.5034973284899600     4.6222705948012077    28.2314934213923330
25     1          1.4960104116713480     0.9061313844171039     8.1886973238468119
26     1          3.1068912959466313     1.8959092902851131    11.5445506743788240
27     1          4.8052759165727865     0.7413041605536949     8.9262320795010393
28     1          6.5874062910894349     1.8598422249582220    11.1379568186538460
29     1          3.1460231444616689     4.0161231586740360     8.1602168997825419
30     1          4.7444071664708209     5.0349747415365158    11.7086797016529012
31     1          6.5084957984459280     3.8857181689086597     9.0065975053235441
32     1          8.2536817215331393     4.9201214025912137    11.2687294681774102
ITEM: TIMESTEP energy, energy_weight, force_weight, nsims
6        -123034.6093422432459192    1    1   85
ITEM: NUMBER OF ATOMS
32        
ITEM: BOX BOUNDS xy xz yz pp pp pp
   -1.1548014529032637     10.5998235821814362      3.4607991513722371
   -0.6802633599629500      6.2440834671873899     -1.1548014529032637
    0.0000000000000000     36.7507696966297459     -0.6802633599629500
ITEM: ATOMS id type x y z
1      1          1.3049658344882353     0.6982836854311957    14.6571510481627740
2      1          2.9952926382393357     1.8247703396369856    17.4133477635801057
3      1          4.9284233741018015     0.8344912742539335    14.5228495788630632
4      1          6.5347674083513061     1.8520635439384121    16.6843898318770520
5      1          3.0891972238948706     3.9234022232691292    13.8442517532998242
6      1          4.7781133564184435     4.9217498140638822    16.7122662944744782
7      1          6.6748043698787303     3.9209499683771458    14.0219984696756690
8      1          8.2953629156724187     4.8581889378490581    16.8907304828056191
9      1          1.2125711524998166     0.6367638563011404    20.2597888868272982
10     1          2.7580036025007706     1.6245599689871568    22.0119781928811342
11     1          4.6716997721552440     0.6897111448946799    19.7615320991180603
12     1          6.3225270676331213     1.6109072986656774    22.0327755988529681
13     1          2.7953649729569672     3.7175627318556077    20.1419914142067320
14     1          4.6230394677324060     4.8016335863081876    22.6725656876103265
15     1          6.3513158975528023     3.7684447006813135    19.3276935844577871
16     1          8.2464106251503591     4.8485533965747942    22.7059134985315225
17     1          0.9216773240176340     0.6349105655589024    25.2712619599375898
18     1          2.6151338760792013     1.5666446332922173    27.5039247438435197
19     1          4.5892761655893368     0.5724919332530083    25.6540207547954253
20     1          6.3021787062979859     1.5631800647359457    28.2174002732634754
21     1          2.7439525746160518     3.7574070550088394    24.9724052636052818
22     1          4.3894677220149632     4.7093923933450315    27.5924250880049300
23     1          6.1958293732546643     3.6169110542105143    25.1871085677520981
24     1          7.9878465827055400     4.7335051622625324    27.8107892838798634
25     1          1.5430101790115804     0.9617757964406032     8.3466175415734121
26     1          3.1668855155558226     1.8454806495107632    11.8818003301975814
27     1          5.1384234889535989     0.8363331425570824     9.0497950282519284
28     1          6.7966489554491227     1.9295626514519477    11.0136321359961915
29     1          3.0942616478260869     3.9248899959605099     9.2047911015716704
30     1          4.7655415343957879     4.9058119420220994    11.2933162683171169
31     1          6.7884083795486401     4.0367392334253260     9.0491810721508781
32     1          8.4119132007249231     4.9158793942744268    11.1638707634352414
ITEM: TIMESTEP energy, energy_weight, force_weight, nsims
7        -123035.6087815844221041    1    1   85
ITEM: NUMBER OF ATOMS
32        
ITEM: BOX BOUNDS xy xz yz pp pp pp
   -0.7698652555940358     10.7097003071960213      3.5706758763868209
   -0.4443828537445748      6.1819025643950409     -0.7698652555940358
    0.0000000000000000     36.7644552064636159     -0.4443828537445748
ITEM: ATOMS id type x y z
1      1          1.4625312427006252     0.8213925922282849    13.8626911395021608
2      1          3.0816027297053759     1.8021781829232468    16.8130393355348957
3      1          5.0669318704985891     0.8363081559715745    14.4120904704288311
4      1          6.8105029462595512     1.7659868985712595    17.4735504427026775
5      1          3.3036463787719486     3.9162853298140550    14.4945619084584258
6      1          4.8731851725684159     4.8584216700455025    17.4766844744278025
7      1          6.8358379161596066     3.9273443925598222    13.7218132008967864
8      1          8.5376742550980591     5.0038593035548331    16.9757348467032614
9      1          1.4296438988552165     0.8499858128785619    20.3073433563658021
10     1          3.1264886319116458     1.7877609230852276    22.5003038837046709
11     1          5.0111311138400554     0.8676656068814609    20.2453559211355341
12     1          6.6382575621100885     1.7334864898500006    22.2455420856717012
13     1          3.0853464341168926     3.9368043138330870    19.8123069825773044
14     1          4.7871185218354668     4.8330495772184063    22.7333937452730375
15     1          6.8190240858201649     3.9284202435415447    20.3114954129747645
16     1          8.4802458008692998     4.8717081084136815    22.4171413881101778
17     1          1.2181367359460753     0.6473738744102090    25.0688234997629067
18     1          3.0982202368729705     1.7749770720369775    27.7163135762698651
19     1          4.8722028428067370     0.7560241150275804    25.2488218644442277
20     1          6.5012882393805826     1.7370545742605192    28.3662360824018727
21     1          3.0151391261569853     3.7412971324782758    25.0339329456622117
22     1          4.7570375284938082     4.8704930464555574    28.4804440535386298
23     1          6.5488548452606219     3.7861816068796590    24.8513595348686991
24     1          8.3521859806294430     4.8580268819944781    28.0890320471682102
25     1          1.4850641455115883     0.8647957190602756     9.2090145484249373
26     1          3.3823819653168998     1.9492556503443350    10.9618856313119135
27     1          5.0848886586494038     0.8370506145123786     8.3380464288417837
28     1          6.7523034773922648     1.8437323024276580    11.5603015039805186
29     1          3.3719968264774018     3.9650205939934171     8.7450400699348858
30     1          5.2590208869559296     5.1066105682850278    10.9202658327827393
31     1          7.0283067287166663     4.0589701555028670     9.0582112241534087
32     1          8.7964389041293849     5.0469340352630070    11.1535969933768637
ITEM: TIMESTEP energy, energy_weight, force_weight, nsims
8        -123037.0319325680029579    1    1   85
ITEM: NUMBER OF ATOMS
32        
ITEM: BOX BOUNDS xy xz yz pp pp pp
   -0.3849361973092345     10.8195770322106064      3.6805526014014061
   -0.2176331597732135      6.1171230567098771     -0.3849361973092345
    0.0000000000000000     36.7725437211437267     -0.2176331597732135
ITEM: ATOMS id type x y z
1      1          1.7923477462820223     1.0139413618589690    14.4882724279348825
2      1          3.4671129045788449     1.8865850104760331    16.7402248558528548
3      1          5.3009233908525646     1.0139506425907290    13.9712035969480173
4      1          6.8808544625129606     1.8544265610250101    16.6267950383790577
5      1          3.4620449111354135     4.0376059109912266    13.8778001708075251
6      1          5.3649411646309595     5.0758535093297716    16.7260367586990668
7      1          7.1355027500574817     4.0740913231497640    14.4645266048731234
8      1          8.9317576844104867     5.0558585297039613    17.2504430789959144
9      1          1.4986054470519472     0.8718405083685981    19.4820143060663717
10     1          3.2782443020422432     1.8583430298277517    22.3572314089892714
11     1          5.2322431202184081     0.8328186008297950    19.4678818933031437
12     1          6.9134284031858568     1.8447553246285926    22.4747490318521486
13     1          3.3743298596613904     3.8832509220653715    19.7535763702923646
14     1          5.2268388787242852     4.9308463589936178    22.0814594620564257
15     1          7.1059707476945535     4.0471857678749297    19.8631197028660331
16     1          8.8100730129873437     5.0383843396046695    23.0280741123133197
17     1          1.4470773965152526     0.8322232061922655    24.7943458579593710
18     1          3.4397276068622609     1.9500166703486588    27.9980130551876059
19     1          5.0543679014028093     0.9083144980880453    25.7633570556605989
20     1          6.7969809200851561     1.8902915919605092    28.1247728590786110
21     1          3.4639631669999722     3.8921104513840059    24.8007003036052325
22     1          5.1456110587505384     4.9810465509861821    28.3267137292504678
23     1          6.9916228516789527     4.0058608110547471    25.1336315635457908
24     1          8.7755636827912546     4.8577041980902056    28.1165522724465333
25     1          1.7046019970029467     1.0489518515701004     9.1236382413544472
26     1          3.4360181697680123     2.0271309844453738    11.3543499298834352
27     1          5.4155468532111941     1.0376700512620927     8.7668233751806159
28     1          7.0117056413052623     2.0299437600711125    10.9822411316714792
29     1          3.5717074654170737     3.9656438308262270     8.9563052199158228
30     1          5.4194162044526921     5.1153901405300362    11.9826561839413959
31     1          7.1793949000629818     4.1109101277492188     8.8993379466652947
32     1          8.9457458888802144     5.0888993625746330    11.6046169981347678
ITEM: TIMESTEP energy, energy_weight, force_weight, nsims
9        -123034.4028764553804649    1    1   85
ITEM: NUMBER OF ATOMS
32        
ITEM: BOX BOUNDS xy xz yz pp pp pp
    0.0000000000000000     10.9294466182007621      3.7904221873915600
    0.0000000000000000      6.0496592758387324      0.0000000000000023
    0.0000000000000000     36.7751994382319793      0.0000000000000012
ITEM: ATOMS id type x y z
1      1          1.7265266549324048     0.9790094014165766    13.6887045472940230
2      1          3.7236416111584418     1.9908554596051031    16.6945815031544740
3      1          5.4300911876840816     1.0602122348048160    14.3765231368120965
4      1          7.1947323801501328     1.9777560636770115    17.3154060596089501
5      1          3.8143486277714169     4.0204187096740540    14.7803242061797402
6      1          5.6223501129228746     5.0610300390016398    17.2048639775174124
7      1          7.2430942733517636     4.0009241756608436    14.3687059050603594
8      1          9.1775849933682991     5.0981115597001496    17.5171677402675918
9      1          1.8037530517126834     0.9967327434685035    19.4742092106561699
10     1          3.5213716319603243     1.9652363565327011    22.1862353541151975
11     1          5.2618029647766162     0.9541634546900314    19.4768485079882367
12     1          7.1635227070459653     2.0790880903503601    22.2604126735610777
13     1          3.7810100975819814     3.9943691234284735    20.2718295654323022
14     1          5.5552661281514473     5.0842568549872773    22.3027813557530443
15     1          7.3057627715127369     4.0965656859603943    19.3496196701921299
16     1          9.1645105840257148     5.0360298893473887    22.9956193933484201
17     1          1.8881227563384295     0.9897721946484646    25.4139446439190735
18     1          3.6240786347390466     2.0571470126647111    27.7931237679258274
19     1          5.4789164035712714     1.0359666800329015    25.5597577901134621
20     1          7.1818500105647383     2.0234358253999871    27.7308007985473033
21     1          3.5877816928254842     3.9541614239317138    25.4184679297984353
22     1          5.5136270542563084     5.0859438064602775    28.4506828884914711
23     1          7.4181624277611693     4.1097714533525052    25.4453906187319028
24     1          9.0354884232925876     5.0864206932922560    28.1373703815892178
25     1          1.9094862869476259     1.0118146464810309     8.6353089810186905
26     1          3.6762656172307051     2.0753172576460068    11.6588071908817117
27     1          5.4166798163883634     1.0216729253175354     8.9784347678464460
28     1          7.2511442372999442     1.9541166120792728    11.9055033191127535
29     1          3.7981394728012643     4.0886228073786759     9.0047927599474367
30     1          5.5902823290821226     5.1300972447599467    10.9734472813776094
31     1          7.2123257919574195     3.9941321078173710     8.8868475095211501
32     1          9.1800108338698880     5.1140180200344352    11.0676759787423027
ITEM: TIMESTEP energy, energy_weight, force_weight, nsims
10       -123035.9514221782737877    1    1   85
ITEM: NUMBER OF ATOMS
32        
ITEM: BOX BOUNDS xy xz yz pp pp pp
    0.0000000000000000     11.4242595405245755      3.9002989124061438
    0.0000000000000000      6.1879064839413527      0.3849361973092315
    0.0000000000000000     36.7725936943147502      0.2084952085017840
ITEM: ATOMS id type x y z
1      1          1.9211393165260360     1.0233013367902031    14.5585147171145000
2      1          3.9938158490350864     2.1717433467305036    16.7595352030357496
3      1          5.5710055353140513     1.1320336761885288    14.6564271510854898
4      1          7.3267686369979499     2.0687572080965362    16.7463044490581296
5      1          4.0503076632585229     4.0794027573262852    13.9635498488557470
6      1          5.7048129841231514     5.0753209381072333    16.7077665673757387
7      1          7.5987390534213857     4.0918082400797022    13.9022984470442896
8      1          9.4338902484832108     5.0942029438242811    16.5246770051158762
9      1          2.0312116508100244     1.1552447863204185    19.7284441486861475
10     1          3.9389567296989756     2.1407785421643117    22.8418191066208358
11     1          5.4656749410570074     1.0325699322087225    20.1526521193892592
12     1          7.5572841663565633     2.1644351274206843    22.8370088319593592
13     1          4.0215930791929217     4.1560673128838586    19.7956723417510752
14     1          5.8504783525118258     5.0273659692981596    22.3168116804669125
15     1          7.5015819282351748     4.0180485535630250    19.4969084527363670
16     1          9.4402653972999229     5.0452884901317052    22.1398609653151048
17     1          2.1384790623951480     1.1764177049773124    25.1044829267947982
18     1          3.9020943770504926     2.1280853567263329    28.3485277323012497
19     1          5.8218194528367846     1.2233025340242087    25.7570590083077349
20     1          7.5699909159409602     2.1539778844344348    27.9650843050004987
21     1          4.0083187771662745     4.1678538422191256    25.5668811086905237
22     1          5.9888219374442615     5.1570777597913038    28.4660924727253715
23     1          7.6612990384110109     4.1232470758681004    25.4778653269652082