ITEM: TIMESTEP energy, energy_weight, force_weight, nsims
1        -7687.3032447286395836    1    1   1089
ITEM: NUMBER OF ATOMS
2         
ITEM: BOX BOUNDS xy xz yz pp pp pp
   -1.5251207010003143      3.0598616068927003     -1.5251207010003143
    0.0000000000000000      2.6498982889396094      0.0000000000000003
    0.0000000000000000      4.7437432273666422      0.0000000000000005
ITEM: ATOMS id type x y z
1      1          0.0032065821312803     1.7665989476230157     1.1859358068416606
2      1          1.5315343237611057     0.8832993413165937     3.5578074205249814
ITEM: TIMESTEP energy, energy_weight, force_weight, nsims
2        -7688.3970862534351909    1    1   1089
ITEM: NUMBER OF ATOMS
2         
ITEM: BOX BOUNDS xy xz yz pp pp pp
   -1.5840175850314733      3.1780268865944001     -1.5840175850314733
    0.0000000000000000      2.7522316663015962      0.0000000000000003
    0.0000000000000000      4.9269363966368234      0.0000000000000005
ITEM: ATOMS id type x y z
1      1          0.0033304134423355     1.8348212026087862     1.2317340991592058
2      1          1.5906788881205913     0.9174104636928102     3.6952022974776177
ITEM: TIMESTEP energy, energy_weight, force_weight, nsims
3        -7689.9549569136152058    1    1   1089
ITEM: NUMBER OF ATOMS
2         
ITEM: BOX BOUNDS xy xz yz pp pp pp
   -1.7293211829390669      3.4695506330685002     -1.7293211829390669
    0.0000000000000000      3.1672278691054432      0.0000000000000003
    0.0000000000000000      5.6698459666934493      0.0000000000000006
ITEM: ATOMS id type x y z
1      1          0.0036359157677282     2.1114853516445571     1.4174614916733623
2      1          1.7365935343617049     1.0557425174608857     4.2523844750200865
ITEM: TIMESTEP energy, energy_weight, force_weight, nsims
4        -7689.8265135455367272    1    1   1089
ITEM: NUMBER OF ATOMS
2         
ITEM: BOX BOUNDS xy xz yz pp pp pp
   -2.1232707516866403      3.5047929553937669     -1.8817827375438860
   -0.2524721802071582      3.0322201465002712     -0.2414880141427540
    0.0000000000000000      5.4222841675605604     -0.2524721802071582
ITEM: ATOMS id type x y z
1      1         -0.1466296896528800     1.9583621536890625     1.3555710418901401
2      1          1.5281518933600065     0.8213858126040501     4.0667131256704199
ITEM: TIMESTEP energy, energy_weight, force_weight, nsims
5        -7689.8356534453268978    1    1   1089
ITEM: NUMBER OF ATOMS
2         
ITEM: BOX BOUNDS xy xz yz pp pp pp
   -2.1153820257501863      3.5086579674023386     -1.8801918444630628
   -0.2455919626194303      3.0357241508964146     -0.2351901812871235
    0.0000000000000000      5.4288757479411309     -0.2455919626194303
ITEM: ATOMS id type x y z
1      1         -0.1427062987913702     1.9624182111335569     1.3572189369852827
2      1          1.5359822404435224     0.8277139771434271     4.0716568109558482
ITEM: TIMESTEP energy, energy_weight, force_weight, nsims
6        -7689.8445005504945584    1    1   1089
ITEM: NUMBER OF ATOMS
2         
ITEM: BOX BOUNDS xy xz yz pp pp pp
   -2.1075390143974895      3.5125720133625178     -1.8786324445539817
   -0.2387370369618888      3.0392666358568596     -0.2289065698435078
    0.0000000000000000      5.4355351691303504     -0.2387370369618888
ITEM: ATOMS id type x y z
1      1         -0.1387911140828406     1.9664935993063219     1.3588837922825876
2      1          1.5438241130478689     0.8340359995886488     4.0766513768477628
ITEM: TIMESTEP energy, energy_weight, force_weight, nsims
7        -7689.8530566297804398    1    1   1089
ITEM: NUMBER OF ATOMS
2         
ITEM: BOX BOUNDS xy xz yz pp pp pp
   -2.0996880279399130      3.5164362353239773     -1.8770546961411383
   -0.2319222629710892      3.0427597034933354     -0.2226333317987746
    0.0000000000000000      5.4420873235934959     -0.2319222629710892
ITEM: ATOMS id type x y z
1      1         -0.1348828983854911     1.9705260046781077     1.3605218308983740
2      1          1.5516311057695553     0.8403114358441380     4.0815654926951215
ITEM: TIMESTEP energy, energy_weight, force_weight, nsims
8        -7689.8613282139203875    1    1   1089
ITEM: NUMBER OF ATOMS
2         
ITEM: BOX BOUNDS xy xz yz pp pp pp
   -2.0918617889639632      3.5203000035695786     -1.8754838104493128
   -0.2251362700955303      3.0462489467453575     -0.2163779785146507
    0.0000000000000000      5.4486254717875413     -0.2251362700955303
ITEM: ATOMS id type x y z
1      1         -0.1309838802644721     1.9745486651813204     1.3621563679468853
2      1          1.5594220948700872     0.8465640114685067     4.0864691038406562
ITEM: TIMESTEP energy, energy_weight, force_weight, nsims
9        -7689.8693207451906346    1    1   1089
ITEM: NUMBER OF ATOMS
2         
ITEM: BOX BOUNDS xy xz yz pp pp pp
   -2.0840965871062123      3.5242163323753872     -1.8739544330377054
   -0.2183850421036786      3.0497783418801654     -0.2101421540685067
    0.0000000000000000      5.4552243201184014     -0.2183850421036786
ITEM: ATOMS id type x y z
1      1         -0.1270998963561600     1.9785894023868020     1.3638060800296004
2      1          1.5672196416253350     0.8528038973896849     4.0914182400888013
ITEM: TIMESTEP energy, energy_weight, force_weight, nsims
10       -7689.8770325909117673    1    1   1089
ITEM: NUMBER OF ATOMS
2         
ITEM: BOX BOUNDS xy xz yz pp pp pp
   -2.0763061576543893      3.5280790679158538     -1.8723972284017414
   -0.2116607159116994      3.0532601865887501     -0.2039089292526480
    0.0000000000000000      5.4617206710798500     -0.2116607159116994
ITEM: ATOMS id type x y z
1      1         -0.1232158752915815     1.9825917138565814     1.3654301677699625
2      1          1.5749887855530456     0.8590077568204691     4.0962905033098878
ITEM: TIMESTEP energy, energy_weight, force_weight, nsims
11       -7689.8844757240958643    1    1   1089
ITEM: NUMBER OF ATOMS
2         
ITEM: BOX BOUNDS xy xz yz pp pp pp
   -2.0685530457283403      3.5319413573763949     -1.8708535605409615
   -0.2049689857851957      3.0567328065021786     -0.1976994851873789
    0.0000000000000000      5.4682031604831947     -0.2049689857851957
ITEM: ATOMS id type x y z
1      1         -0.1193469726251847     1.9865797264462468     1.3670507901207987
2      1          1.5827352842732390     0.8651840942707359     4.1011523703623958
ITEM: TIMESTEP energy, energy_weight, force_weight, nsims
12       -7689.8916472875462205    1    1   1089
ITEM: NUMBER OF ATOMS
2         
ITEM: BOX BOUNDS xy xz yz pp pp pp
   -2.0608101398115806      3.5358028989000849     -1.8693139252782227
   -0.1983076907862122      3.0602036049257157     -0.1914962145333580
    0.0000000000000000      5.4746653590451606     -0.1983076907862122
ITEM: ATOMS id type x y z
1      1         -0.1154825510226870     1.9905589159273775     1.3686663397612902
2      1          1.5904753101111910     0.8713369982121258     4.1059990192838702
ITEM: TIMESTEP energy, energy_weight, force_weight, nsims
13       -7689.8985471452060665    1    1   1089
ITEM: NUMBER OF ATOMS
2         
ITEM: BOX BOUNDS xy xz yz pp pp pp
   -2.0530978796350512      3.5396674442766338     -1.8677844103181001
   -0.1916813136093709      3.0636688826233462     -0.1853134693169509
    0.0000000000000000      5.4811104235923001     -0.1916813136093709
ITEM: ATOMS id type x y z
1      1         -0.1116290063641548     1.9945256954688508     1.3702776058980750
2      1          1.5981985710057378     0.8774618735451244     4.1108328176942255
ITEM: TIMESTEP energy, energy_weight, force_weight, nsims
14       -7689.9566504148542663    1    1   1089
ITEM: NUMBER OF ATOMS
2         
ITEM: BOX BOUNDS xy xz yz pp pp pp
   -1.7312729829472644      3.4734665447111004     -1.7312729829472644
    0.0000000000000000      3.1672144729304668      0.0000000000000003
    0.0000000000000000      5.6698228041290015      0.0000000000000006
ITEM: ATOMS id type x y z
1      1          0.0036400194475395     2.1114764208607930     1.4174557010322504
2      1          1.7385535423162961     1.0557380520696735     4.2523671030967511
ITEM: TIMESTEP energy, energy_weight, force_weight, nsims
15       -7689.9051865898054530    1    1   1089
ITEM: NUMBER OF ATOMS
2         
ITEM: BOX BOUNDS xy xz yz pp pp pp
   -2.0453999454390344      3.5435311772514217     -1.8662626718023987
   -0.1850792529452329      3.0671322259130318     -0.1791372736366357
    0.0000000000000000      5.4875392505147094     -0.1850792529452329
ITEM: ATOMS id type x y z
1      1         -0.1077825541867457     1.9984851062767870     1.3718848126286773
2      1          1.6059137859991328     0.8835678666910117     4.1156544378860325
ITEM: TIMESTEP energy, energy_weight, force_weight, nsims
16       -7689.9115661655723670    1    1   1089
ITEM: NUMBER OF ATOMS
2         
ITEM: BOX BOUNDS xy xz yz pp pp pp
   -2.0376908984298279      3.5473412645289177     -1.8647168857162939
   -0.1785057570740275      3.0705461199141570     -0.1729740127135341
    0.0000000000000000      5.4938660616711426     -0.1785057570740275
ITEM: ATOMS id type x y z
1      1         -0.1039411858815451     2.0024044096924682     1.3734665154177856
2      1          1.6135915519806345     0.8896359531476610     4.1203995462533571
ITEM: TIMESTEP energy, energy_weight, force_weight, nsims
17       -7689.9176929474670033    1    1   1089
ITEM: NUMBER OF ATOMS
2         
ITEM: BOX BOUNDS xy xz yz pp pp pp
   -2.0300474587776565      3.5512036099093076     -1.8632128693225827
   -0.1719701677418846      3.0739966853029705     -0.1668345894550737
    0.0000000000000000      5.5002581749382351     -0.1719701677418846
ITEM: ATOMS id type x y z
1      1         -0.1001162040896034     2.0063386840663986     1.3750645437345588
2      1          1.6212723552212547     0.8956878334946872     4.1251936312036763
ITEM: TIMESTEP energy, energy_weight, force_weight, nsims
18       -7689.9235632619556782    1    1   1089
ITEM: NUMBER OF ATOMS
2         
ITEM: BOX BOUNDS xy xz yz pp pp pp
   -2.0224154726715531      3.5550650345615225     -1.8617132943989441
   -0.1654587924095303      3.0774453943590929     -0.1607021782726090
    0.0000000000000000      5.5066344748017375     -0.1654587924095303
ITEM: ATOMS id type x y z
1      1         -0.0962962432062184     2.0102656673851920     1.3766586187004344
2      1          1.6289458050961874     0.9017209345643701     4.1299758561013036
ITEM: TIMESTEP energy, energy_weight, force_weight, nsims
19       -7689.9291817349712801    1    1   1089
ITEM: NUMBER OF ATOMS
2         
ITEM: BOX BOUNDS xy xz yz pp pp pp
   -2.0147735116222725      3.5588762513746737     -1.8601935482851444
   -0.1589727678656862      3.0808446383570542     -0.1545799633371279
    0.0000000000000000      5.5129128520930752     -0.1589727678656862
ITEM: ATOMS id type x y z
1      1         -0.0924821198684802     2.0141533362997692     1.3782282130232688
2      1          1.6365848596208814     0.9077185341915989     4.1346846390698069
ITEM: TIMESTEP energy, energy_weight, force_weight, nsims
20       -7689.9345542169667169    1    1   1089
ITEM: NUMBER OF ATOMS
2         
ITEM: BOX BOUNDS xy xz yz pp pp pp
   -2.0071556906580152      3.5626865876358380     -1.8586815110159149
   -0.1525183091991926      3.0842402052838049     -0.1484741796421003
    0.0000000000000000      5.5191753118968947     -0.1525183091991926
ITEM: ATOMS id type x y z
1      1         -0.0886775370881255     2.0180306623640782     1.3797938279742237
2      1          1.6442084340659484     0.9136912337205337     4.1393814839226710
ITEM: TIMESTEP energy, energy_weight, force_weight, nsims
21       -7689.9396813882258357    1    1   1089
ITEM: NUMBER OF ATOMS
2         
ITEM: BOX BOUNDS xy xz yz pp pp pp
   -1.9995917783757435      3.5665489210900176     -1.8572047151670692
   -0.1461039960109464      3.0876743987036193     -0.1423870632086743
    0.0000000000000000      5.5255002577214247     -0.1461039960109464
ITEM: ATOMS id type x y z
1      1         -0.0848837830086632     2.0219237030554891     1.3813750644303562
2      1          1.6518409257229374     0.9196466996371833     4.1441251932910683
ITEM: TIMESTEP energy, energy_weight, force_weight, nsims
22       -7689.9445629766350976    1    1   1089
ITEM: NUMBER OF ATOMS
2         
ITEM: BOX BOUNDS xy xz yz pp pp pp
   -1.9920072066586083      3.5703572878389092     -1.8557051599723418
   -0.1397019163794626      3.0910608974905043     -0.1363020466862666
    0.0000000000000000      5.5317317617908088     -0.1397019163794626
ITEM: ATOMS id type x y z
1      1         -0.0810933699089063     2.0257818889341670     1.3829329404477022
2      1          1.6594434510892067     0.9255770921768744     4.1487988213431066
ITEM: TIMESTEP energy, energy_weight, force_weight, nsims
23       -7689.9492063292718740    1    1   1089
ITEM: NUMBER OF ATOMS
2         
ITEM: BOX BOUNDS xy xz yz pp pp pp
   -1.9844594008052883      3.5741683203222037     -1.8542201086164345
   -0.1333348690178908      3.0944418880970681     -0.1302392921888537
    0.0000000000000000      5.5379439947100257     -0.1333348690178908
ITEM: ATOMS id type x y z
1      1         -0.0773173029637161     2.0296276446249690     1.3844859986775064
2      1          1.6670262224806311     0.9314793744542085     4.1534579960325191
ITEM: TIMESTEP energy, energy_weight, force_weight, nsims
24       -7689.9536123985335507    1    1   1089
ITEM: NUMBER OF ATOMS
2         
ITEM: BOX BOUNDS xy xz yz pp pp pp
   -1.9769245287164745      3.5779782397078592     -1.8527363776541721
   -0.1270022030556989      3.0978211467653605     -0.1241881510623025
    0.0000000000000000      5.5441409666562436     -0.1270022030556989
ITEM: ATOMS id type x y z
1      1         -0.0735453906562244     2.0334636503403534     1.3860352416640609
2      1          1.6745991016476092     0.9373552933693078     4.1581057249921827
ITEM: TIMESTEP energy, energy_weight, force_weight, nsims
25       -7689.9583041874548144    1    1   1089
ITEM: NUMBER OF ATOMS
2         
ITEM: BOX BOUNDS xy xz yz pp pp pp
   -1.7332511586312478      3.4774353740785999     -1.7332511586312478
    0.0000000000000000      3.1672516161461628      0.0000000000000003
    0.0000000000000000      5.6698888287276743      0.0000000000000006
ITEM: ATOMS id type x y z
1      1          0.0036441785824836     2.1115011830058288     1.4174722071819186
2      1          1.7405400368648682     1.0557504331403340     4.2524166215457555
ITEM: TIMESTEP energy, energy_weight, force_weight, nsims
26       -7689.9577810483633584    1    1   1089
ITEM: NUMBER OF ATOMS
2         
ITEM: BOX BOUNDS xy xz yz pp pp pp
   -1.9694078537273823      3.5817906760135778     -1.8512607064840736
   -0.1206874534966855      3.1011967432765521     -0.1181471472433087
    0.0000000000000000      5.5503266453209950     -0.1206874534966855
ITEM: ATOMS id type x y z
1      1         -0.0697805468973962     2.0372927355167545     1.3875816613302487
2      1          1.6821633691835918     0.9432165542631118     4.1627449839907467
ITEM: TIMESTEP energy, energy_weight, force_weight, nsims
27       -7689.9617181292132955    1    1   1089
ITEM: NUMBER OF ATOMS
2         
ITEM: BOX BOUNDS xy xz yz pp pp pp
   -1.9619117188170787      3.5855983578362296     -1.8497936652351394
   -0.1144009114350643      3.1045669003099050     -0.1121180535819393
    0.0000000000000000      5.5564938746572485     -0.1144009114350643
ITEM: ATOMS id type x y z
1      1         -0.0660260187865685     2.0411111425000672     1.3891234686643121
2      1          1.6897126578057196     0.9490548463747733     4.1673704059929362
ITEM: TIMESTEP energy, energy_weight, force_weight, nsims
28       -7689.9654207838848379    1    1   1089
ITEM: NUMBER OF ATOMS
2         
ITEM: BOX BOUNDS xy xz yz pp pp pp
   -1.9544426350117152      3.5894085613420645     -1.8483342364849720
   -0.1081520518256846      3.1079316916803106     -0.1061083985267433
    0.0000000000000000      5.5626459627472471     -0.1081520518256846
ITEM: ATOMS id type x y z
1      1         -0.0622805847657387     2.0449165517615091     1.3906614906868118
2      1          1.6972465110960879     0.9548630880931170     4.1719844720604353
ITEM: TIMESTEP energy, energy_weight, force_weight, nsims
29       -7689.9688960873409087    1    1   1089
ITEM: NUMBER OF ATOMS
2         
ITEM: BOX BOUNDS xy xz yz pp pp pp
   -1.9469873280720769      3.5932211168709882     -1.8468799959009747
   -0.1019211955631020      3.1112946755645070     -0.1001073321711022
    0.0000000000000000      5.5687836577447127     -0.1019211955631020
ITEM: ATOMS id type x y z
1      1         -0.0585399726897997     2.0487162551953846     1.3921959144361782
2      1          1.7047737614887108     0.9606572248060200     4.1765877433085343
ITEM: TIMESTEP energy, energy_weight, force_weight, nsims
30       -7689.9721455362105189    1    1   1089
ITEM: NUMBER OF ATOMS
2         
ITEM: BOX BOUNDS xy xz yz pp pp pp
   -1.9395496618834549      3.5970288144440401     -1.8454345831160499
   -0.0957149502926005      3.1146522377777073     -0.0941150787674050
    0.0000000000000000      5.5749069308621975     -0.0957149502926005
ITEM: ATOMS id type x y z
1      1         -0.0548090683699842     2.0525061914337290     1.3937267327155494
2      1          1.7122882209305694     0.9664310960513774     4.1811801981466479
ITEM: TIMESTEP energy, energy_weight, force_weight, nsims
31       -7689.9751698107766060    1    1   1089
ITEM: NUMBER OF ATOMS
2         
ITEM: BOX BOUNDS xy xz yz pp pp pp
   -1.9321433345467300      3.6008389299390551     -1.8439970265006858
   -0.0895499473703031      3.1180080432454740     -0.0881463080460444
    0.0000000000000000      5.5810154513305941     -0.0895499473703031
ITEM: ATOMS id type x y z
1      1         -0.0510884661934817     2.0562846459213415     1.3952538628326485
2      1          1.7197840615858067     0.9721734499538291     4.1857615884979458
ITEM: TIMESTEP energy, energy_weight, force_weight, nsims
32       -7689.9779723124647717    1    1   1089
ITEM: NUMBER OF ATOMS
2         
ITEM: BOX BOUNDS xy xz yz pp pp pp
   -1.9247195039535976      3.6045983994505288     -1.8425377615448459
   -0.0833981146952624      3.1213126462132594     -0.0821817424087517
    0.0000000000000000      5.5870243544143623     -0.0833981146952624
ITEM: ATOMS id type x y z
1      1         -0.0473713250531141     2.0600256728454456     1.3967560886035906
2      1          1.7272502205500455     0.9778888586725516     4.1902682658107722
ITEM: TIMESTEP energy, energy_weight, force_weight, nsims
33       -7689.9805530412731969    1    1   1089
ITEM: NUMBER OF ATOMS
2         
ITEM: BOX BOUNDS xy xz yz pp pp pp
   -1.9173459140354940      3.6084058254925253     -1.8411146198907107
   -0.0772758475606230      3.1246576688385890     -0.0762312941447833
    0.0000000000000000      5.5931047670056788     -0.0772758475606230
ITEM: ATOMS id type x y z
1      1         -0.0436658099498427     2.0637862548241590     1.3982761917514197
2      1          1.7347257214068736     0.9835955664538069     4.1948285752542596
ITEM: TIMESTEP energy, energy_weight, force_weight, nsims
34       -7689.9829159428554703    1    1   1089
ITEM: NUMBER OF ATOMS
2         
ITEM: BOX BOUNDS xy xz yz pp pp pp
   -1.9099605594434059      3.6121626027974210     -1.8396695057423675
   -0.0711766606385443      3.1279569368978142     -0.0702910537010385
    0.0000000000000000      5.5990891452238882     -0.0711766606385443
ITEM: ATOMS id type x y z
1      1         -0.0399650813821011     2.0675105637041380     1.3997722863059721
2      1          1.7421671247361161     0.9892697125551319     4.1993168589179160
ITEM: TIMESTEP energy, energy_weight, force_weight, nsims
35       -7689.9850626498964630    1    1   1089
ITEM: NUMBER OF ATOMS
2         
ITEM: BOX BOUNDS xy xz yz pp pp pp
   -1.9026026527433508      3.6159216210019482     -1.8382330761744401
   -0.0651156612172370      3.1312490564016509     -0.0643695765689108
    0.0000000000000000      5.6050630881221819     -0.0651156612172370
ITEM: ATOMS id type x y z
1      1         -0.0362740863963615     2.0712205600050928     1.4012657720305455
2      1          1.7495930546549590     0.9949128351793206     4.2037973160916362
ITEM: TIMESTEP energy, energy_weight, force_weight, nsims
36       -7689.9599185035303890    1    1   1089
ITEM: NUMBER OF ATOMS
2         
ITEM: BOX BOUNDS xy xz yz pp pp pp
   -1.7352029586394462      3.4813512857212001     -1.7352029586394462
    0.0000000000000000      3.1672463659670047      0.0000000000000003
    0.0000000000000000      5.6698784020308324      0.0000000000000006
ITEM: ATOMS id type x y z
1      1          0.0036482822622946     2.1114976828862151     1.4174696005077081
2      1          1.7425000448194594     1.0557486830807896     4.2524088015231243
ITEM: TIMESTEP energy, energy_weight, force_weight, nsims
37       -7689.9869949311359960    1    1   1089
ITEM: NUMBER OF ATOMS
2         
ITEM: BOX BOUNDS xy xz yz pp pp pp
   -1.8952843139590687      3.6197321123896393     -1.8368292218919426
   -0.0590700578809908      3.1345852432566814     -0.0584550920671261
    0.0000000000000000      5.6111018706128908     -0.0590700578809908
ITEM: ATOMS id type x y z
1      1         -0.0325893987002411     2.0749560855203812     1.4027754676532227
2      1          1.7570371971308119     1.0005590998553093     4.2083264029596679
ITEM: TIMESTEP energy, energy_weight, force_weight, nsims
38       -7689.9887165961690698    1    1   1089
ITEM: NUMBER OF ATOMS
2         
ITEM: BOX BOUNDS xy xz yz pp pp pp
   -1.8879588414533817      3.6234882475631824     -1.8354037159130248
   -0.0530514935568804      3.1378720715633235     -0.0525551255403570
    0.0000000000000000      5.6170449394795758     -0.0530514935568804
ITEM: ATOMS id type x y z
1      1         -0.0289120247691102     2.0786519455820645     1.4042612348698940
2      1          1.7644414308789107     1.0061686324243786     4.2127837046096817
ITEM: TIMESTEP energy, energy_weight, force_weight, nsims
39       -7689.9902273728839646    1    1   1089
ITEM: NUMBER OF ATOMS
2         
ITEM: BOX BOUNDS xy xz yz pp pp pp
   -1.8806527849281474      3.6272465019378397     -1.8339876431401041
   -0.0470511181085849      3.1411571611820550     -0.0466651417880434
    0.0000000000000000      5.6229745841616641     -0.0470511181085849
ITEM: ATOMS id type x y z
1      1         -0.0252427289356050     2.0823420992994621     1.4057436460404160
2      1          1.7718364459452971     1.0117639437740076     4.2172309381212481
ITEM: TIMESTEP energy, energy_weight, force_weight, nsims
40       -7689.9915307987575943    1    1   1089
ITEM: NUMBER OF ATOMS
2         
ITEM: BOX BOUNDS xy xz yz pp pp pp
   -1.8733714486820814      3.6310032543695243     -1.8325805386193026
   -0.0410852767358130      3.1444351080197310     -0.0407909100627788
    0.0000000000000000      5.6288943584317508     -0.0410852767358130
ITEM: ATOMS id type x y z
1      1         -0.0215838505915145     2.0860188576437042     1.4072235896079377
2      1          1.7792156562789574     1.0173309736402136     4.2216707688238131
ITEM: TIMESTEP energy, energy_weight, force_weight, nsims
41       -7689.9926263295656099    1    1   1089
ITEM: NUMBER OF ATOMS
2         
ITEM: BOX BOUNDS xy xz yz pp pp pp
   -1.8661026590475613      3.6347584430316831     -1.8311757292551312
   -0.0351440629792262      3.1477113674950759     -0.0349269297924302
    0.0000000000000000      5.6347972527641597     -0.0351440629792262
ITEM: ATOMS id type x y z
1      1         -0.0179295864721063     2.0896883341756229     1.4086993131910399
2      1          1.7865853704562278     1.0228789703402268     4.2260979395731200
ITEM: TIMESTEP energy, energy_weight, force_weight, nsims
42       -7689.9935206321006262    1    1   1089
ITEM: NUMBER OF ATOMS
2         
ITEM: BOX BOUNDS xy xz yz pp pp pp
   -1.8588589825322439      3.6385156973471040     -1.8297800274279026
   -0.0292308449931821      3.1509841156333951     -0.0290789551043413
    0.0000000000000000      5.6406905890397452     -0.0292308449931821
ITEM: ATOMS id type x y z
1      1         -0.0142847068888431     2.0933484708734382     1.4101726472599363
2      1          1.7939414217037033     1.0284047997667745     4.2305179417798087
ITEM: TIMESTEP energy, energy_weight, force_weight, nsims
43       -7689.9942128900183889    1    1   1089
ITEM: NUMBER OF ATOMS
2         
ITEM: BOX BOUNDS xy xz yz pp pp pp
   -1.8516282042464411      3.6422749744290979     -1.8283903555112977
   -0.0233321294526765      3.1542515371158419     -0.0232378487351436
    0.0000000000000000      5.6465673026362762     -0.0233321294526765
ITEM: ATOMS id type x y z
1      1         -0.0106448900704627     2.0970014308557765     1.4116418256590690
2      1          1.8012916602531193     1.0339179768073885     4.2349254769772067
ITEM: TIMESTEP energy, energy_weight, force_weight, nsims
44       -7689.9947035114901155    1    1   1089
ITEM: NUMBER OF ATOMS
2         
ITEM: BOX BOUNDS xy xz yz pp pp pp
   -1.8444141539979524      3.6460326117156692     -1.8270067679145066
   -0.0174646143740880      3.1575172895829047     -0.0174073860834458
    0.0000000000000000      5.6524346923473487     -0.0174646143740880
ITEM: ATOMS id type x y z
1      1         -0.0070123369932887     2.1006454780456574     1.4131086730868372
2      1          1.8086307947110052     1.0394071971631593     4.2393260192605116
ITEM: TIMESTEP energy, energy_weight, force_weight, nsims
45       -7689.9950014762771389    1    1   1089
ITEM: NUMBER OF ATOMS
2         
ITEM: BOX BOUNDS xy xz yz pp pp pp
   -1.8371991754961274      3.6497356711226789     -1.8256060159117082
   -0.0116183690720101      3.1607337201591674     -0.0115931595844191
    0.0000000000000000      5.6582072107351635     -0.0116183690720101
ITEM: ATOMS id type x y z
1      1         -0.0033905926410734     2.1042513265292326     1.4145518026837909
2      1          1.8159270882676251     1.0448640245579244     4.2436554080513726
ITEM: TIMESTEP energy, energy_weight, force_weight, nsims
46       -7689.9951009339301891    1    1   1089
ITEM: NUMBER OF ATOMS
2         
ITEM: BOX BOUNDS xy xz yz pp pp pp
   -1.8300280497862826      3.6534935988244284     -1.8242379789101939
   -0.0057970433639501      3.1639943289442503     -0.0057900708760887
    0.0000000000000000      5.6640526986041237     -0.0057970433639501
ITEM: ATOMS id type x y z
1      1          0.0002248466912721     2.1078803972549900     1.4160131746510309
2      1          1.8232407023468733     1.0503168883253100     4.2480395239530928
ITEM: TIMESTEP energy, energy_weight, force_weight, nsims
47       -7689.9614918664537981    1    1   1089
ITEM: NUMBER OF ATOMS
2         
ITEM: BOX BOUNDS xy xz yz pp pp pp
   -1.7371547586476435      3.4852671973638003     -1.7371547586476435
    0.0000000000000000      3.1672435361387485      0.0000000000000003
    0.0000000000000000      5.6698744998777979      0.0000000000000006
ITEM: ATOMS id type x y z
1      1          0.0036523859421060     2.1114957963339496     1.4174686249694495
2      1          1.7444600527740508     1.0557477398047985     4.2524058749083480
ITEM: TIMESTEP energy, energy_weight, force_weight, nsims
48       -7689.9949952176557417    1    1   1089
ITEM: NUMBER OF ATOMS
2         
ITEM: BOX BOUNDS xy xz yz pp pp pp
   -1.8228720477038274      3.6572534605386036     -1.8228720477038274
    0.0000000000000000      3.1672514746441665      0.0000036572498038
    0.0000000000000000      5.6698819142860684      0.0000036572498039
ITEM: ATOMS id type x y z
1      1          0.0038359676021044     2.1114995648169530     1.4174704785715171
2      1          1.8305454452326717     1.0557519098272132     4.2524114357145510
ITEM: TIMESTEP energy, energy_weight, force_weight, nsims
49       -7689.9947270493476026    1    1   1089
ITEM: NUMBER OF ATOMS
2         
ITEM: BOX BOUNDS xy xz yz pp pp pp
   -1.8214934124785351      3.6667338469469195     -1.8214934124785351
    0.0000000000000000      3.1762261316358118      0.0057788544316089
    0.0000000000000000      5.6756202396176771      0.0057722930048569
ITEM: ATOMS id type x y z
1      1          0.0074339200457023     2.1150790713536454     1.4189050599044193
2      1          1.8378065144226823     1.0611470602821664     4.2567151797132574
ITEM: TIMESTEP energy, energy_weight, force_weight, nsims
50       -7689.9942591493909276    1    1   1089
ITEM: NUMBER OF ATOMS
2         
ITEM: BOX BOUNDS xy xz yz pp pp pp
   -1.8201175748179752      3.6762083596350865     -1.8201175748179752
    0.0000000000000000      3.1851816320244035      0.0115499566512389
    0.0000000000000000      5.6813424872235592      0.0115234003066160
ITEM: ATOMS id type x y z
1      1          0.0110283907862430     2.1186531103437867     1.4203356218058898
2      1          1.8450623940308686     1.0665285216806168     4.2610068654176692
ITEM: TIMESTEP energy, energy_weight, force_weight, nsims
51       -7689.9936043071438689    1    1   1089
ITEM: NUMBER OF ATOMS
2         
ITEM: BOX BOUNDS xy xz yz pp pp pp
   -1.8187739954415771      3.6857206668391536     -1.8187739954415771
    0.0000000000000000      3.1941545828386166      0.0173040849131398
    0.0000000000000000      5.6871381270538821      0.0172532389763330
ITEM: ATOMS id type x y z
1      1          0.0146153686695523     2.1222476448823167     1.4217845317634705
2      1          1.8523313027280239     1.0719069379562995     4.2653535952904118
ITEM: TIMESTEP energy, energy_weight, force_weight, nsims
52       -7689.9927664682554678    1    1   1089
ITEM: NUMBER OF ATOMS
2         
ITEM: BOX BOUNDS xy xz yz pp pp pp
   -1.8174106920267172      3.6951664033014686     -1.8174106920267172
    0.0000000000000000      3.2030521860202406      0.0230463943625680
    0.0000000000000000      5.6928432155636663      0.0229515047272269
ITEM: ATOMS id type x y z