ITEM: TIMESTEP energy, energy_weight, force_weight, nsims
1        -7684.1043310957165886    1    1   49
ITEM: NUMBER OF ATOMS
2         
ITEM: BOX BOUNDS xy xz yz pp pp pp
   -3.0304711024832391      5.0507851708054012     -3.0304711024832391
    0.0000000000000000      5.0507851708054021      0.0000000000000005
    0.0000000000000000      8.0812562732886395      0.0000000000000009
ITEM: ATOMS id type x y z
1      1         -0.3367191797465324     3.3671902822297723     2.0203140683221603
2      1          2.3570332480686926     1.6835948885756278     6.0609422049664801
ITEM: TIMESTEP energy, energy_weight, force_weight, nsims
2        -7683.9274615107406134    1    1   49
ITEM: NUMBER OF ATOMS
2         
ITEM: BOX BOUNDS xy xz yz pp pp pp
   -3.0606024550413014      5.1010040917355006     -3.0606024550413014
    0.0000000000000000      5.1010040917354997      0.0000000000000005
    0.0000000000000000      8.1616065467767989      0.0000000000000009
ITEM: ATOMS id type x y z
1      1         -0.3400671094825030     3.4006695645238025     2.0404016366942002
2      1          2.3804687461767027     1.7003345272116968     6.1212049100825991
ITEM: TIMESTEP energy, energy_weight, force_weight, nsims
3        -7683.7586909896517682    1    1   49
ITEM: NUMBER OF ATOMS
2         
ITEM: BOX BOUNDS xy xz yz pp pp pp
   -3.0904798025198410      5.1507996708663999     -3.0904798025198410
    0.0000000000000000      5.1507996708663990      0.0000000000000005
    0.0000000000000000      8.2412794733862391      0.0000000000000009
ITEM: ATOMS id type x y z
1      1         -0.3433868164177489     3.4338666189375879     2.0603198683465598
2      1          2.4037066847643085     1.7169330519288106     6.1809596050396785
ITEM: TIMESTEP energy, energy_weight, force_weight, nsims
4        -7683.5980052464674372    1    1   49
ITEM: NUMBER OF ATOMS
2         
ITEM: BOX BOUNDS xy xz yz pp pp pp
   -3.1200396436489788      5.2000660727483012     -3.1200396436489788
    0.0000000000000000      5.2000660727483012      0.0000000000000005
    0.0000000000000000      8.3201057163972809      0.0000000000000009
ITEM: ATOMS id type x y z
1      1         -0.3466712448520891     3.4667108885010691     2.0800264290993202
2      1          2.4266976739514092     1.7333551842472310     6.2400792872979602
ITEM: TIMESTEP energy, energy_weight, force_weight, nsims
5        -7683.4453493141681975    1    1   49
ITEM: NUMBER OF ATOMS
2         
ITEM: BOX BOUNDS xy xz yz pp pp pp
   -3.1493454796985989      5.2489091328310007     -3.1493454796985989
    0.0000000000000000      5.2489091328310016      0.0000000000000005
    0.0000000000000000      8.3982546125296000      0.0000000000000009
ITEM: ATOMS id type x y z
1      1         -0.3499274504857044     3.4992729301843042     2.0995636531324000
2      1          2.4494911036181044     1.7496362026466954     6.2986909593971996
ITEM: TIMESTEP energy, energy_weight, force_weight, nsims
6        -7683.3006343475444737    1    1   49
ITEM: NUMBER OF ATOMS
2         
ITEM: BOX BOUNDS xy xz yz pp pp pp
   -3.1783655600337593      5.2972759333896011     -3.1783655600337593
    0.0000000000000000      5.2972759333896020      0.0000000000000005
    0.0000000000000000      8.4756414934233604      0.0000000000000009
ITEM: ATOMS id type x y z
1      1         -0.3531519054685044     3.5315174655022643     2.1189103733558401
2      1          2.4720622788243447     1.7657584678873357     6.3567311200675203
ITEM: TIMESTEP energy, energy_weight, force_weight, nsims
7        -7683.1637489159311372    1    1   49
ITEM: NUMBER OF ATOMS
2         
ITEM: BOX BOUNDS xy xz yz pp pp pp
   -3.2071316352893988      5.3452193921490005     -3.2071316352893988
    0.0000000000000000      5.3452193921490014      0.0000000000000005
    0.0000000000000000      8.5523510274384016      0.0000000000000009
ITEM: ATOMS id type x y z
1      1         -0.3563481376505797     3.5634797729399792     2.1380877568596000
2      1          2.4944358945101794     1.7817396192090202     6.4142632705787994
ITEM: TIMESTEP energy, energy_weight, force_weight, nsims
8        -7683.0345209072456782    1    1   49
ITEM: NUMBER OF ATOMS
2         
ITEM: BOX BOUNDS xy xz yz pp pp pp
   -3.2356437054655212      5.3927395091091999     -3.2356437054655212
    0.0000000000000000      5.3927395091091990      0.0000000000000005
    0.0000000000000000      8.6283832145747166      0.0000000000000009
ITEM: ATOMS id type x y z
1      1         -0.3595161470319302     3.5951598524974493     2.1570958036436796
2      1          2.5166119506756099     1.7975796566117495     6.4712874109310388
ITEM: TIMESTEP energy, energy_weight, force_weight, nsims
9        -7682.9127543994363805    1    1   49
ITEM: NUMBER OF ATOMS
2         
ITEM: BOX BOUNDS xy xz yz pp pp pp
   -3.2639017705621214      5.4398362842702008     -3.2639017705621214
    0.0000000000000000      5.4398362842701999      0.0000000000000005
    0.0000000000000000      8.7037380548323178      0.0000000000000009
ITEM: ATOMS id type x y z
1      1         -0.3626559336125561     3.6265577041746759     2.1759345137080799
2      1          2.5385904473206362     1.8132785800955238     6.5278035411242401
ITEM: TIMESTEP energy, energy_weight, force_weight, nsims
10       -7682.7982087077034521    1    1   49
ITEM: NUMBER OF ATOMS
2         
ITEM: BOX BOUNDS xy xz yz pp pp pp
   -3.2919058305791991      5.4865097176320008     -3.2919058305791991
    0.0000000000000000      5.4865097176320017      0.0000000000000005
    0.0000000000000000      8.7784155482112016      0.0000000000000009
ITEM: ATOMS id type x y z
1      1         -0.3657674973924572     3.6576733279716569     2.1946038870528000
2      1          2.5603713844452574     1.8288363896603428     6.5838116611583999
ITEM: TIMESTEP energy, energy_weight, force_weight, nsims
11       -7682.6906077724352144    1    1   49
ITEM: NUMBER OF ATOMS
2         
ITEM: BOX BOUNDS xy xz yz pp pp pp
   -3.3196876361516989      5.5328127269195004     -3.3196876361516989
    0.0000000000000000      5.5328127269195013      0.0000000000000005
    0.0000000000000000      8.8525003630712007      0.0000000000000010
ITEM: ATOMS id type x y z
1      1         -0.3688543662217242     3.6885420023734237     2.2131250907677997
2      1          2.5819794569895240     1.8442707245460757     6.6393752723033996
ITEM: TIMESTEP energy, energy_weight, force_weight, nsims
12       -7682.5896566220972090    1    1   49
ITEM: NUMBER OF ATOMS
2         
ITEM: BOX BOUNDS xy xz yz pp pp pp
   -3.3472471872796214      5.5787453121326998     -3.3472471872796214
    0.0000000000000000      5.5787453121326998      0.0000000000000005
    0.0000000000000000      8.9259924994123185      0.0000000000000010
ITEM: ATOMS id type x y z
1      1         -0.3719165401003570     3.7191637273799758     2.2314981248530796
2      1          2.6034146649534367     1.8595815847527226     6.6944943745592385
ITEM: TIMESTEP energy, energy_weight, force_weight, nsims
13       -7682.4950351146126195    1    1   49
ITEM: NUMBER OF ATOMS
2         
ITEM: BOX BOUNDS xy xz yz pp pp pp
   -3.3745844839629582      5.6243074732715996     -3.3745844839629582
    0.0000000000000000      5.6243074732716005      0.0000000000000006
    0.0000000000000000      8.9988919572345587      0.0000000000000010
ITEM: ATOMS id type x y z
1      1         -0.3749540190283557     3.7495385029913146     2.2497229893086397
2      1          2.6246770083369952     1.8747689702802839     6.7491689679259181
ITEM: TIMESTEP energy, energy_weight, force_weight, nsims
14       -7682.4064152166029089    1    1   49
ITEM: NUMBER OF ATOMS
2         
ITEM: BOX BOUNDS xy xz yz pp pp pp
   -3.4016677755667786      5.6694462926113003     -3.4016677755667786
    0.0000000000000000      5.6694462926113012      0.0000000000000006
    0.0000000000000000      9.0711140681780780      0.0000000000000010
ITEM: ATOMS id type x y z
1      1         -0.3779632751556297     3.7796310507224091     2.2677785170445199
2      1          2.6457417922001496     1.8898152418888901     6.8033355511335589
ITEM: TIMESTEP energy, energy_weight, force_weight, nsims
15       -7682.3234694389138895    1    1   49
ITEM: NUMBER OF ATOMS
2         
ITEM: BOX BOUNDS xy xz yz pp pp pp
   -3.4285605633609615      5.7142676056016013     -3.4285605633609615
    0.0000000000000000      5.7142676056016004      0.0000000000000006
    0.0000000000000000      9.1428281689625610      0.0000000000000010
ITEM: ATOMS id type x y z
1      1         -0.3809513641823602     3.8095119275433200     2.2857070422406403
2      1          2.6666584064230001     1.9047556780582799     6.8571211267219203
ITEM: TIMESTEP energy, energy_weight, force_weight, nsims
16       -7682.2458658025134355    1    1   49
ITEM: NUMBER OF ATOMS
2         
ITEM: BOX BOUNDS xy xz yz pp pp pp
   -3.4552628473454989      5.7587714122425009     -3.4552628473454989
    0.0000000000000000      5.7587714122425018      0.0000000000000006
    0.0000000000000000      9.2140342595880007      0.0000000000000010
ITEM: ATOMS id type x y z
1      1         -0.3839182861085471     3.8391811334540469     2.3035085648970002
2      1          2.6874268510055472     1.9195902787884529     6.9105256946909996
ITEM: TIMESTEP energy, energy_weight, force_weight, nsims
17       -7682.1732883830927676    1    1   49
ITEM: NUMBER OF ATOMS
2         
ITEM: BOX BOUNDS xy xz yz pp pp pp
   -3.4817428768854586      5.8029047948091002     -3.4817428768854586
    0.0000000000000000      5.8029047948091010      0.0000000000000006
    0.0000000000000000      9.2846476716945592      0.0000000000000010
ITEM: ATOMS id type x y z
1      1         -0.3868605130840997     3.8686033899695591     2.3211619179236398
2      1          2.7080224310077394     1.9343014048395399     6.9634857537709189
ITEM: TIMESTEP energy, energy_weight, force_weight, nsims
18       -7682.1054256101660940    1    1   49
ITEM: NUMBER OF ATOMS
2         
ITEM: BOX BOUNDS xy xz yz pp pp pp
   -3.5080006519808418      5.8466677533014009     -3.5080006519808418
    0.0000000000000000      5.8466677533014000      0.0000000000000006
    0.0000000000000000      9.3546684052822382      0.0000000000000010
ITEM: ATOMS id type x y z
1      1         -0.3897780451090184     3.8977786970898580     2.3386671013205600
2      1          2.7284451464295785     1.9488890562115415     7.0160013039616800
ITEM: TIMESTEP energy, energy_weight, force_weight, nsims
19       -7682.0419806074005464    1    1   49
ITEM: NUMBER OF ATOMS
2         
ITEM: BOX BOUNDS xy xz yz pp pp pp
   -3.5340996739015189      5.8901661231692009     -3.5340996739015189
    0.0000000000000000      5.8901661231692017      0.0000000000000006
    0.0000000000000000      9.4242657970707189      0.0000000000000010
ITEM: ATOMS id type x y z
1      1         -0.3926779378834841     3.9267776117850040     2.3560664492676802
2      1          2.7487443871511639     1.9633885113841958     7.0681993478030396
ITEM: TIMESTEP energy, energy_weight, force_weight, nsims
20       -7681.9826726892470106    1    1   49
ITEM: NUMBER OF ATOMS
2         
ITEM: BOX BOUNDS xy xz yz pp pp pp
   -3.5599764413776214      5.9332940689627005     -3.5599764413776214
    0.0000000000000000      5.9332940689626996      0.0000000000000006
    0.0000000000000000      9.4932705103403183      0.0000000000000010
ITEM: ATOMS id type x y z
1      1         -0.3955531357073156     3.9555295770849352     2.3733176275850800
2      1          2.7688707632923952     1.9777644918777642     7.1199528827552392
ITEM: TIMESTEP energy, energy_weight, force_weight, nsims
21       -7681.9272357282488883    1    1   49
ITEM: NUMBER OF ATOMS
2         
ITEM: BOX BOUNDS xy xz yz pp pp pp
   -3.5856944556790182      5.9761574261317003     -3.5856944556790182
    0.0000000000000000      5.9761574261317012      0.0000000000000006
    0.0000000000000000      9.5618518818107212      0.0000000000000010
ITEM: ATOMS id type x y z
1      1         -0.3984106942806941     3.9841051499597135     2.3904629704526799
2      1          2.7888736647333738     1.9920522761719857     7.1713889113580391
ITEM: TIMESTEP energy, energy_weight, force_weight, nsims
22       -7681.8754146175697315    1    1   49
ITEM: NUMBER OF ATOMS
2         
ITEM: BOX BOUNDS xy xz yz pp pp pp
   -3.6112219661707816      6.0187032769513005     -3.6112219661707816
    0.0000000000000000      6.0187032769512996      0.0000000000000006
    0.0000000000000000      9.6299252431220790      0.0000000000000010
ITEM: ATOMS id type x y z
1      1         -0.4012470857535292     4.0124690519243087     2.4074813107805202
2      1          2.8087283965340490     2.0062342250269904     7.2224439323415588
ITEM: TIMESTEP energy, energy_weight, force_weight, nsims
23       -7681.8269743868031583    1    1   49
ITEM: NUMBER OF ATOMS
2         
ITEM: BOX BOUNDS xy xz yz pp pp pp
   -3.6365589728528986      6.0609316214215001     -3.6365589728528986
    0.0000000000000000      6.0609316214215010      0.0000000000000006
    0.0000000000000000      9.6974905942744005      0.0000000000000010
ITEM: ATOMS id type x y z
1      1         -0.4040623101258206     4.0406212829787203     2.4243726485685997
2      1          2.8284349586944204     2.0203103384427790     7.2731179457057991
ITEM: TIMESTEP energy, energy_weight, force_weight, nsims
24       -7681.7816876847327876    1    1   49
ITEM: NUMBER OF ATOMS
2         
ITEM: BOX BOUNDS xy xz yz pp pp pp
   -3.6617054757253786      6.1028424595423001     -3.6617054757253786
    0.0000000000000000      6.1028424595423010      0.0000000000000006
    0.0000000000000000      9.7645479352676787      0.0000000000000011
ITEM: ATOMS id type x y z
1      1         -0.4068563673975686     4.0685618431229482     2.4411369838169197
2      1          2.8479933512144884     2.0342806164193510     7.3234109514507590
ITEM: TIMESTEP energy, energy_weight, force_weight, nsims
25       -7681.7393558681706054    1    1   49
ITEM: NUMBER OF ATOMS
2         
ITEM: BOX BOUNDS xy xz yz pp pp pp
   -3.6867249760581013      6.1445416267635000     -3.6867249760581013
    0.0000000000000000      6.1445416267634991      0.0000000000000006
    0.0000000000000000      9.8312666028215965      0.0000000000000011
ITEM: ATOMS id type x y z
1      1         -0.4096363132689542     4.0963612893270529     2.4578166507054000
2      1          2.8674529639743538     2.0481803374364453     7.3734499521161982
ITEM: TIMESTEP energy, energy_weight, force_weight, nsims
26       -7681.6997695454192581    1    1   49
ITEM: NUMBER OF ATOMS
2         
ITEM: BOX BOUNDS xy xz yz pp pp pp
   -3.7115222219462418      6.1858703699104005     -3.7115222219462418
    0.0000000000000000      6.1858703699104005      0.0000000000000006
    0.0000000000000000      9.8973925918566383      0.0000000000000011
ITEM: ATOMS id type x y z
1      1         -0.4123915641897056     4.1239137861359447     2.4743481479641600
2      1          2.8867397121538656     2.0619565837744540     7.4230444438924792
ITEM: TIMESTEP energy, energy_weight, force_weight, nsims
27       -7681.6627541553743868    1    1   49
ITEM: NUMBER OF ATOMS
2         
ITEM: BOX BOUNDS xy xz yz pp pp pp
   -3.7361924652946188      6.2269874421577009     -3.7361924652946188
    0.0000000000000000      6.2269874421577018      0.0000000000000006
    0.0000000000000000      9.9631799074523197      0.0000000000000011
ITEM: ATOMS id type x y z
1      1         -0.4151327037100947     4.1513251690047142     2.4907949768630804
2      1          2.9059276805731749     2.0756622731529855     7.4723849305892394
ITEM: TIMESTEP energy, energy_weight, force_weight, nsims
28       -7681.6281302388806580    1    1   49
ITEM: NUMBER OF ATOMS
2         
ITEM: BOX BOUNDS xy xz yz pp pp pp
   -3.7607039554682986      6.2678399257805006     -3.7607039554682986
    0.0000000000000000      6.2678399257805015      0.0000000000000006
    0.0000000000000000     10.0285438812487993      0.0000000000000011
ITEM: ATOMS id type x y z
1      1         -0.4178562039800308     4.1785601594483301     2.5071359703122003
2      1          2.9249921742922305     2.0892797663321692     7.5214079109365990
ITEM: TIMESTEP energy, energy_weight, force_weight, nsims
29       -7681.5957447318314735    1    1   49
ITEM: NUMBER OF ATOMS
2         
ITEM: BOX BOUNDS xy xz yz pp pp pp
   -3.7850249418323383      6.3083749030538998     -3.7850249418323383
    0.0000000000000000      6.3083749030539007      0.0000000000000006
    0.0000000000000000     10.0933998448862390      0.0000000000000011
ITEM: ATOMS id type x y z
1      1         -0.4205585371494233     4.2055834789817625     2.5233499612215597
2      1          2.9439084983709827     2.1027914240721364     7.5700498836646783
ITEM: TIMESTEP energy, energy_weight, force_weight, nsims
30       -7681.5654440258967952    1    1   49
ITEM: NUMBER OF ATOMS
2         
ITEM: BOX BOUNDS xy xz yz pp pp pp
   -3.8092189256566185      6.3486982094276998     -3.8092189256566185
    0.0000000000000000      6.3486982094277016      0.0000000000000006
    0.0000000000000000     10.1579171350843183      0.0000000000000011
ITEM: ATOMS id type x y z
1      1         -0.4232467589184535     4.2324656845750726     2.5394792837710796
2      1          2.9627260426895332     2.1162325248526259     7.6184378513132387
ITEM: TIMESTEP energy, energy_weight, force_weight, nsims
31       -7681.5370902953545738    1    1   49
ITEM: NUMBER OF ATOMS
2         
ITEM: BOX BOUNDS xy xz yz pp pp pp
   -3.8332541563061988      6.3887569271770008     -3.8332541563061988
    0.0000000000000000      6.3887569271770017      0.0000000000000006
    0.0000000000000000     10.2220110834831992      0.0000000000000011
ITEM: ATOMS id type x y z
1      1         -0.4259173414370309     4.2591714977432309     2.5555027708708002
2      1          2.9814201123078310     2.1295854294337691     7.6665083126123994
ITEM: TIMESTEP energy, energy_weight, force_weight, nsims
32       -7681.5105448981430527    1    1   49
ITEM: NUMBER OF ATOMS
2         
ITEM: BOX BOUNDS xy xz yz pp pp pp
   -3.8571306337810785      6.4285510563018002     -3.8571306337810785
    0.0000000000000000      6.4285510563018011      0.0000000000000006
    0.0000000000000000     10.2856816900828800      0.0000000000000011
ITEM: ATOMS id type x y z
1      1         -0.4285702847051551     4.2857009184862340     2.5714204225207200
2      1          2.9999907072258747     2.1428501378155644     7.7142612675621587
ITEM: TIMESTEP energy, energy_weight, force_weight, nsims
33       -7681.4856955872519393    1    1   49
ITEM: NUMBER OF ATOMS
2         
ITEM: BOX BOUNDS xy xz yz pp pp pp
   -3.8808801087162017      6.4681335145270005     -3.8808801087162017
    0.0000000000000000      6.4681335145269996      0.0000000000000006
    0.0000000000000000     10.3490136232431986      0.0000000000000011
ITEM: ATOMS id type x y z
1      1         -0.4312091165729171     4.3120892252891165     2.5872534058108001
2      1          3.0184625223837167     2.1560442892378826     7.7617602174323990
ITEM: TIMESTEP energy, energy_weight, force_weight, nsims
34       -7681.4624218161970930    1    1   49
ITEM: NUMBER OF ATOMS
2         
ITEM: BOX BOUNDS xy xz yz pp pp pp
   -3.9044708304766185      6.5074513841277000     -3.9044708304766185
    0.0000000000000000      6.5074513841277009      0.0000000000000006
    0.0000000000000000     10.4119222146043189      0.0000000000000011
ITEM: ATOMS id type x y z
1      1         -0.4338303091902260     4.3383011396668456     2.6029805536510797
2      1          3.0368108628413055     2.1691502444608535     7.8089416609532387
ITEM: TIMESTEP energy, energy_weight, force_weight, nsims
35       -7681.4406222225297824    1    1   49
ITEM: NUMBER OF ATOMS
2         
ITEM: BOX BOUNDS xy xz yz pp pp pp
   -3.9279345496972784      6.5465575828288003     -3.9279345496972784
    0.0000000000000000      6.5465575828288012      0.0000000000000006
    0.0000000000000000     10.4744921325260787      0.0000000000000011
ITEM: ATOMS id type x y z
1      1         -0.4364373904071727     4.3643719401044523     2.6186230331315201
2      1          3.0550604235386922     2.1821856427243471     7.8558690993945586
ITEM: TIMESTEP energy, energy_weight, force_weight, nsims
36       -7681.4202004779026538    1    1   49
ITEM: NUMBER OF ATOMS
2         
ITEM: BOX BOUNDS xy xz yz pp pp pp
   -3.9512395157432412      6.5853991929053999     -3.9512395157432412
    0.0000000000000000      6.5853991929053990      0.0000000000000006
    0.0000000000000000     10.5366387086486384      0.0000000000000011
ITEM: ATOMS id type x y z
1      1         -0.4390268323736664     4.3902663481169055     2.6341596771621596
2      1          3.0731865095358257     2.1951328447884930     7.9024790314864788
ITEM: TIMESTEP energy, energy_weight, force_weight, nsims
37       -7681.4010613424343319    1    1   49
ITEM: NUMBER OF ATOMS
2         
ITEM: BOX BOUNDS xy xz yz pp pp pp
   -3.9744174792494382      6.6240291320824003     -3.9744174792494382
    0.0000000000000000      6.6240291320824012      0.0000000000000006
    0.0000000000000000     10.5984466113318394      0.0000000000000011
ITEM: ATOMS id type x y z
1      1         -0.4416021629397976     4.4160196421892373     2.6496116528329599
2      1          3.0912138157727576     2.2080094898931621     7.9488349584988791
ITEM: TIMESTEP energy, energy_weight, force_weight, nsims
38       -7681.3831163790837309    1    1   49
ITEM: NUMBER OF ATOMS
2         
ITEM: BOX BOUNDS xy xz yz pp pp pp
   -3.9974366895809381      6.6623944826349000     -3.9974366895809381
    0.0000000000000000      6.6623944826349009      0.0000000000000007
    0.0000000000000000     10.6598311722158385      0.0000000000000012
ITEM: ATOMS id type x y z
1      1         -0.4441598542554760     4.4415965438364156     2.6649577930539596
2      1          3.1091176473094357     2.2207979387984835     7.9948733791618789
ITEM: TIMESTEP energy, energy_weight, force_weight, nsims
39       -7681.3662832733798496    1    1   49
ITEM: NUMBER OF ATOMS
2         
ITEM: BOX BOUNDS xy xz yz pp pp pp
   -4.0203606480076184      6.7006010800127003     -4.0203606480076184
    0.0000000000000000      6.7006010800127012      0.0000000000000007
    0.0000000000000000     10.7209617280203204      0.0000000000000012
ITEM: ATOMS id type x y z
1      1         -0.4467069620208826     4.4670676100285016     2.6802404320050801
2      1          3.1269473940259624     2.2335334699841973     8.0407212960152386
ITEM: TIMESTEP energy, energy_weight, force_weight, nsims
40       -7681.3504920920322547    1    1   49
ITEM: NUMBER OF ATOMS
2         
ITEM: BOX BOUNDS xy xz yz pp pp pp
   -4.0431258532596015      6.7385430887660007     -4.0431258532596015
    0.0000000000000000      6.7385430887659998      0.0000000000000007
    0.0000000000000000     10.7816689420255987      0.0000000000000012
ITEM: ATOMS id type x y z
1      1         -0.4492364305358362     4.4923622837954360     2.6954172355064001
2      1          3.1446536660422360     2.2461808049705638     8.0862517065191994
ITEM: TIMESTEP energy, energy_weight, force_weight, nsims
41       -7681.3356720854144442    1    1   49
ITEM: NUMBER OF ATOMS
2         
ITEM: BOX BOUNDS xy xz yz pp pp pp
   -4.0657958066067623      6.7763263443446009     -4.0657958066067623
    0.0000000000000000      6.7763263443446000      0.0000000000000007
    0.0000000000000000     10.8421221509513597      0.0000000000000012
ITEM: ATOMS id type x y z
1      1         -0.4517553155005181     4.5175511221072782     2.7105305377378404
2      1          3.1622858532383580     2.2587752222373219     8.1315916132135193
ITEM: TIMESTEP energy, energy_weight, force_weight, nsims
42       -7681.3217628442243949    1    1   49
ITEM: NUMBER OF ATOMS
2         
ITEM: BOX BOUNDS xy xz yz pp pp pp
   -4.0883070067792220      6.8138450112987003     -4.0883070067792220
    0.0000000000000000      6.8138450112987003      0.0000000000000007
    0.0000000000000000     10.9021520180779188      0.0000000000000012
ITEM: ATOMS id type x y z
1      1         -0.4542565612147470     4.5425635679939660     2.7255380045194801
2      1          3.1797945657342268     2.2712814433047326     8.1766140135584386
ITEM: TIMESTEP energy, energy_weight, force_weight, nsims
43       -7681.3087068163604272    1    1   49
ITEM: NUMBER OF ATOMS
2         
ITEM: BOX BOUNDS xy xz yz pp pp pp
   -4.1107229550468585      6.8512049250781004     -4.1107229550468585
    0.0000000000000000      6.8512049250781013      0.0000000000000007
    0.0000000000000000     10.9619278801249607      0.0000000000000012
ITEM: ATOMS id type x y z
1      1         -0.4567472233787041     4.5674701784255634     2.7404819700312402
2      1          3.1972291934099437     2.2837347466525357     8.2214459100937187
ITEM: TIMESTEP energy, energy_weight, force_weight, nsims
44       -7681.2964518919980037    1    1   49
ITEM: NUMBER OF ATOMS
2         
ITEM: BOX BOUNDS xy xz yz pp pp pp
   -4.1329801501397982      6.8883002502329997     -4.1329801501397982
    0.0000000000000000      6.8883002502330006      0.0000000000000007
    0.0000000000000000     11.0212804003728007      0.0000000000000012
ITEM: ATOMS id type x y z
1      1         -0.4592202462922083     4.5922003964320073     2.7553201000931997
2      1          3.2145403463854079     2.2960998538009911     8.2659603002795983
ITEM: TIMESTEP energy, energy_weight, force_weight, nsims
45       -7681.2849527641647001    1    1   49
ITEM: NUMBER OF ATOMS
2         
ITEM: BOX BOUNDS xy xz yz pp pp pp
   -4.1551420933279184      6.9252368222132006     -4.1551420933279184
    0.0000000000000000      6.9252368222132006      0.0000000000000007
    0.0000000000000000     11.0803789155411199      0.0000000000000012
ITEM: ATOMS id type x y z
1      1         -0.4616826856554407     4.6168247789833599     2.7700947288852800
2      1          3.2317774145407205     2.3084120432298390     8.3102841866558386
ITEM: TIMESTEP energy, energy_weight, force_weight, nsims
46       -7681.2741596360028780    1    1   49
ITEM: NUMBER OF ATOMS
2         
ITEM: BOX BOUNDS xy xz yz pp pp pp
   -4.1772087846112216      6.9620146410187003     -4.1772087846112216
    0.0000000000000000      6.9620146410186994      0.0000000000000007
    0.0000000000000000     11.1392234256299183      0.0000000000000012
ITEM: ATOMS id type x y z
1      1         -0.4641345414684013     4.6413433260796202     2.7848058564074800
2      1          3.2489403978758808     2.3206713149390783     8.3544175692224396
ITEM: TIMESTEP energy, energy_weight, force_weight, nsims
47       -7681.2640391735540106    1    1   49
ITEM: NUMBER OF ATOMS
2         
ITEM: BOX BOUNDS xy xz yz pp pp pp
   -4.1991167227198192      6.9985278711997010     -4.1991167227198192
    0.0000000000000000      6.9985278711997028      0.0000000000000007
    0.0000000000000000     11.1976445939195202      0.0000000000000012
ITEM: ATOMS id type x y z
1      1         -0.4665687580309090     4.6656854807507289     2.7994111484798800
2      1          3.2659799065107888     2.3328423904489708     8.3982334454396401
ITEM: TIMESTEP energy, energy_weight, force_weight, nsims
48       -7681.2545534169184975    1    1   49
ITEM: NUMBER OF ATOMS
2         
ITEM: BOX BOUNDS xy xz yz pp pp pp
   -4.2209294089236016      7.0348823482060006     -4.2209294089236016
    0.0000000000000000      7.0348823482059988      0.0000000000000007
    0.0000000000000000     11.2558117571295977      0.0000000000000012
ITEM: ATOMS id type x y z
1      1         -0.4689923910431449     4.6899217999667444     2.8139529392823999
2      1          3.2829453303255449     2.3449605482392548     8.4418588178471996
ITEM: TIMESTEP energy, energy_weight, force_weight, nsims
49       -7681.2456596442079899    1    1   49
ITEM: NUMBER OF ATOMS
2         
ITEM: BOX BOUNDS xy xz yz pp pp pp
   -4.2426468432225581      7.0710780720375999     -4.2426468432225581
    0.0000000000000000      7.0710780720376016      0.0000000000000007
    0.0000000000000000     11.3137249152601598      0.0000000000000012
ITEM: ATOMS id type x y z
1      1         -0.4714054405051090     4.7140522837276677     2.8284312288150399
2      1          3.2998366693201486     2.3570257883099304     8.4852936864451181
