ITEM: TIMESTEP energy, energy_weight, force_weight, nsims
1        -211473.2886731740145478    1    1   88
ITEM: NUMBER OF ATOMS
55        
ITEM: BOX BOUNDS xy xz yz pp pp pp
   -6.6599068561068142     10.6426540787132993     -5.7964044747763319
   -1.5903743695984427      8.9256853388485613     -0.8635023813304824
    0.0000000000000000     16.3996700907443120     -1.5903743695984427
ITEM: ATOMS id type x y z
1      1         -0.0743293603511416     1.8425712147708966     1.5678470637100308
2      1          2.1171729753098569     2.9305367490101131     2.5940256054298692
3      1          1.6186433873623216     0.6226314486285957     4.2631322013718176
4      1         -0.3531232623317073     1.2712309732092517     6.7032224582071782
5      1          1.2292435743379120     0.0127424497284434     9.6281154077593492
6      1         -0.7925265212795433     0.8437113018057070    12.1771885708915484
7      1          0.8511409386180568    -0.5189283630202054    15.1914776861740961
8      1         -2.1813098658498151     4.9654058232676483     1.2960358070705087
9      1         -0.5996273518374569     3.6217068899056226     4.0719560776250745
10     1         -2.4657518243499537     4.1631519161601620     7.0054940550853848
11     1         -0.7170775537193210     3.1519592956485591     9.4194608532191353
12     1         -2.5276952638842887     3.7576742456190400    12.3379064829304212
13     1         -0.9818029312732357     2.5776007973901911    15.1183594598571140
14     1         -3.9102239206525002     7.7970276167393839     1.1441374624666654
15     1         -2.3879816939351644     6.5893162601335247     4.3318709755354110
16     1         -4.4737897034096452     7.2943261083929940     6.8720309158766888
17     1         -2.6926681090238311     5.8953811577083659     9.5394599707528513
18     1         -4.8000785777472847     6.8687018936808668    12.1319743193035432
19     1         -2.8512606830431855     5.5613795519598828    15.1231039550454032
20     1          3.2605271384363288     1.8270829602901451     1.2706424344386988
21     1          5.0174845867364244     0.6348470869801428     4.1412429484737219
22     1          3.1246938801643034     1.4427224439720063     6.7331974934198735
23     1          4.7777917958410514     0.1145149578869551     9.4959794075142696
24     1          2.6584700686727021     0.8788192890805664    12.1798556200036749
25     1          4.3438045835538723    -0.4146122605368813    14.9751966057210772
26     1          1.3429848112733447     4.9173670112871521     1.3373803896354943
27     1          3.0080620983810924     3.6467671474647685     4.1382097920612892
28     1          1.0232560689098240     4.3884132681247987     6.8522675072525177
29     1          2.9181050647807676     2.9000647018519410     9.7935820720481441
30     1          0.9246806140365578     3.7975022499778084    12.0960149197023874
31     1          2.4906939484488260     2.3760161579544667    15.1286008858770575
32     1         -0.5519897679157282     7.7132507723625690     1.4238168332665799
33     1          1.1257480204840566     6.5324291455519869     4.3013521006992930
34     1         -0.7371517278425901     7.2995356875645232     6.6261547429615835
35     1          0.9055451220030314     6.1086301460143613     9.7785131381380932
36     1         -1.1451878924242342     6.6983704722126927    12.1330204921994813
37     1          0.7697022853423346     5.4424053220139470    14.9210116610101249
38     1          6.9667079665609224     1.9441808903220039     1.1499185521622224
39     1          8.4207967650889941     0.7079376423965221     4.1937750890062508
40     1          6.7265096495968111     1.3689316019172475     6.7491146468599981
41     1          8.3180823820445173     0.0333700418638056     9.6151877758499360
42     1          6.5557503934346721     0.7006442315563799    12.1390389130809933
43     1          8.0416617919235041    -0.5585190361930188    15.1549212336791239
44     1          4.8322513210272353     4.9232215352958528     1.5951699495263114
45     1          6.4201182813247328     3.6945398930932969     4.1695822077545204
46     1          4.8877378623320142     4.1707465141107312     6.8462916569873205
47     1          6.2997573135523410     3.0634911693538469     9.7179734646767422
48     1          4.3974584598262974     3.6839983442283315    12.3097747554041597
49     1          6.2242764180298833     2.4009753102998652    15.1614143169325484
50     1          3.0724703766000574     7.9007679516370510     1.2948427655482850
51     1          4.6616910824963682     6.5767345144816698     3.8885182276589649
52     1          2.7957177356717886     7.2342536474456960     7.0500495263859175
53     1          4.4437093059215700     5.9796986489123798     9.5063538667101977
54     1          2.6488597520396238     6.6871275724439396    12.3632572849459184
55     1          4.0615975824102639     5.4085105973040610    15.1689557016127239
ITEM: TIMESTEP energy, energy_weight, force_weight, nsims
2        -211479.5130608513427433    1    1   88
ITEM: NUMBER OF ATOMS
55        
ITEM: BOX BOUNDS xy xz yz pp pp pp
   -4.9281341844185871     11.3334581123085005     -4.9281341844185871
    0.0000000000000000     10.5731894755415397      0.6908040335952012
    0.0000000000000000     16.4452632208175231      1.1402965286096594
ITEM: ATOMS id type x y z
1      1          0.1431990391599032     2.0848437850149497     1.1956936716201763
2      1          2.5286946091022799     3.4404337557791225     2.9625668807254084
3      1          1.9015815388411379     1.4088319763237516     3.9577657206875205
4      1          0.1775758760995550     2.6690137460684835     6.8413566582910219
5      1          2.1036536118336673     1.6591131437620366     9.6434355083056573
6      1          0.5487246016443790     2.9048336751446122    12.4921174762655713
7      1          2.2820521650935071     2.1383614353151676    15.1613909030935758
8      1         -1.3706014343421977     5.2226589933928986     1.4775505294445956
9      1          0.2652787955660077     4.5521813648226317     4.3567811716720479
10     1         -1.3334979494275796     5.7737015650956218     6.6249734083588461
11     1          0.6850867998241168     4.8304101418716181     9.7361234469425799
12     1         -1.1044531339379591     6.2104069112345037    12.3600719385801590
13     1          0.9247029636101232     5.1336140352471205    15.0805205675456566
14     1         -2.9609449402438126     8.3625261054772224     1.5298730096917736
15     1         -1.3185577916318818     7.7199716084132763     3.9672557753295092
16     1         -3.0716796274020086     8.8903432131839715     6.8618373818000968
17     1         -1.0849366348884149     8.0734631065761064     9.5111994671122364
18     1         -2.8803576992943878     9.3340854821996970    12.1671131702752326
19     1         -0.8450607903428877     8.3631859500301040    14.9111565633332361
20     1          3.8081619323030478     2.0905716614401131     1.2692663392663213
21     1          5.6962070794214705     1.2970745301085913     3.9282600265196961
22     1          3.8423919006164136     2.6757643815506111     6.7807605787630516
23     1          5.6153793144898669     1.7318673913095286     9.3708590448378750
24     1          4.1478946072729181     2.9864915670943564    12.2241279967057146
25     1          5.9145453849079050     2.0690053872150083    14.9720038094974637
26     1          2.1941672562423085     5.2931420985599935     1.2079667803037484
27     1          3.8753734856063460     4.3479669255640570     4.2430590915139561
28     1          2.3519584384095356     5.6385579508078960     6.9544103797729688
29     1          3.9492760755289313     4.9968761513784035     9.6424052993908376
30     1          2.3585068634641675     6.2099556627015655    12.1628529158475231
31     1          4.3466227583539156     5.2722846250965310    15.1297109146974691
32     1          0.2334721595863651     8.5841274487041908     1.2353109514281864
33     1          2.3534835307390152     7.7026730384737361     4.2902230773291832
34     1          0.7461522203969578     8.8233104564691942     7.0985587436766941
35     1          2.5672550733602737     7.9585096713411092     9.3938290851359625
36     1          0.9966643334287509     9.2952525659972896    12.4529599591137607
37     1          2.6046725165702145     8.3164987551176051    14.9532152679869021
38     1          7.2453432929957149     2.1690176003889010     1.4901035399304381
39     1          9.0579341512268758     1.2492932703568000     3.8907734060582442
40     1          7.4124712755861975     2.4461257059633987     6.9802347798949667
41     1          9.4612588128478752     1.5876317576423589     9.6122631745091063
42     1          7.7876227033300260     2.8146233463772150    12.1652389988919705
43     1          9.6253238395945022     2.0900693281675982    15.3209849508617335
44     1          5.5349016928774519     5.3484232366410538     1.4300289504523251
45     1          7.4112792983293820     4.4867960909592410     3.8910490507988831
46     1          5.9554035981814941     5.6609862800133763     6.9887818953855820
47     1          7.6901881409739978     4.7999923722492470     9.5181374133061496
48     1          6.0189604640741612     5.9590604141229395    12.3541950649978940
49     1          8.0710440313040159     5.2016780651421231    15.1458441140153894
50     1          3.9988910645784848     8.4749668100842381     1.1985490957094949
51     1          5.6797120298648727     7.6250423268273773     4.3269572621472694
52     1          4.1512066012222135     8.9481615599973967     7.0390322508836354
53     1          6.2104771527514222     7.8804575105932342     9.4974449009809074
54     1          4.3190774410673898     9.1426635131437362    12.2071082643030362
55     1          6.2192158360154544     8.4975622289587527    15.2201681530394932
ITEM: TIMESTEP energy, energy_weight, force_weight, nsims
3        -211475.1363974488631357    1    1   88
ITEM: NUMBER OF ATOMS
55        
ITEM: BOX BOUNDS xy xz yz pp pp pp
   -6.7011014051951410     10.7084837284888987     -5.8322578694004656
   -1.6002115574830096      8.9808947570555144     -0.8688435357946754
    0.0000000000000000     16.5011094996102265     -1.6002115574830096
ITEM: ATOMS id type x y z
1      1         -0.3410994739003026     1.9459413797475114     1.3555312710740215
2      1          1.9099255364234846     2.9834745888686993     2.9833203867030091
3      1          1.3444533446568998     0.7129612090074353     3.9262955428048945
4      1         -0.4986480407556955     1.3343884408004931     6.9548485647770404
5      1          1.4656583885861740    -0.0619550034595454     9.6097943687943115
6      1         -0.7564954787572340     0.8213696148811654    12.3035541429338604
7      1          0.9403601443753884    -0.3577211823436631    15.2524339042693047
8      1         -2.1681445588104018     4.7414188991272326     1.6082514870663596
9      1         -0.4883743214665833     3.4819223809786721     4.2261395122928205
10     1         -2.4719035499494635     4.3215296144978268     7.0313371223528911
11     1         -0.9386521412206944     3.1912652196814166     9.6337674513172775
12     1         -2.5812842861457406     3.7098160482948814    12.2064174870327378
13     1         -0.9511682170025522     2.4091989526289237    14.9522633260276603
14     1         -4.0584896327363440     7.7759226255072997     1.5810637177280991
15     1         -2.3412686152488815     6.6114167831206734     4.0326671950734658
16     1         -4.4933226064088556     7.2908775716319036     7.0340185266785040
17     1         -2.4967086816581352     5.9770162232905504     9.6521860433302802
18     1         -4.5349657579322038     6.7734072290266427    12.5332821735127613
19     1         -3.0575719420279781     5.6035599949562460    14.9714497163239919
20     1          3.2959588525497336     1.7628209537484867     1.6186269369508925
21     1          5.3036078697826623     0.4597516153087052     4.3631877578983946
22     1          3.1090551192494340     1.3626492002083479     6.9842594153373350
23     1          4.8280205487362684    -0.0605800341488074     9.6396646133065573
24     1          2.6863773454571303     0.7239481133128649    12.4940452182832029
25     1          4.4580402942202308    -0.3955221299052289    15.1608710141488583
26     1          1.3994628255701473     4.8818135458979590     1.1414879566122398
27     1          3.1752924453520022     3.6055346920501110     4.2709223912453611
28     1          1.0907554441001508     4.2354473263496235     7.0611634620818506
29     1          2.7042390963162499     3.1104975520076619     9.7280770675140804
30     1          0.8697741030306810     3.8554064513706705    12.3038936018680545
31     1          2.5131579835134668     2.5757554959967215    14.9869288295535217
32     1         -0.3026442379829261     7.7224401743737348     1.4582438344525686
33     1          1.0716215253740868     6.5968575286434197     4.0656578917441948
34     1         -0.6626334771802831     7.1837991594372514     6.9895922402341224
35     1          0.7167198867961349     6.1144253447977750     9.7899024983205098
36     1         -1.0409588530659317     6.8091146680192889    12.4231250722461688
37     1          0.7169918822828385     5.3815302933297566    15.3368135435046788
38     1          6.8730485992718595     1.9762035547642209     1.2158219672619184
39     1          8.6381761604154637     0.5803045125789148     4.1175126533510298
40     1          6.7119383907283714     1.4518315943959492     6.8262193290788051
41     1          8.4042300580959122     0.0385655332997799     9.5881118309408659
42     1          6.3943772349116603     0.8740285836160097    12.1896769144199908
43     1          8.1167843710688299    -0.5787068068066242    15.2873896077042097
44     1          5.1584029721210989     4.8463888108757445     1.4060485430631680
45     1          6.6528554026048061     3.4576462483661881     4.3587929961762226
46     1          4.8175904855847191     4.3555033499748310     7.0221610226459497
47     1          6.3380827359509935     3.0682118914606047     9.8141315136045897
48     1          4.4198848958472521     3.8061634889452143    12.2155871616494434
49     1          6.1026524377866744     2.4675398428301043    15.2173946746613158
50     1          3.0186498162200399     7.7494512537304754     1.2250848056870611
51     1          4.6914145635086806     6.6720278718722925     3.9454273198342125
52     1          2.6601404894739598     7.2940322909383166     7.0660990022323125
53     1          4.4162804202242425     6.1691060752605580     9.6655844981713646
54     1          2.3758827180528490     6.7706958409465896    12.4436489521601885
55     1          4.0869752703024975     5.5314876160700246    15.3372590164277849
ITEM: TIMESTEP energy, energy_weight, force_weight, nsims
4        -211477.1989963772357441    1    1   88
ITEM: NUMBER OF ATOMS
55        
ITEM: BOX BOUNDS xy xz yz pp pp pp
   -6.4302624347341997     10.7084837284888987     -5.7351854644017131
   -1.2638902090223603      9.0431860069041363     -0.6950769703324866
    0.0000000000000000     16.5384928163063805     -1.2638902090223603
ITEM: ATOMS id type x y z
1      1         -0.2042032887636734     1.8102713159977941     1.2981477193181681
2      1          2.1011394344245007     2.9677877310548357     2.6466852796691138
3      1          1.5129941700595866     0.8372727840663443     3.9449625716403962
4      1         -0.4174027747076502     1.6223534892884064     6.8313936684164105
5      1          1.3218980653795835     0.3490258935561301     9.7148981365894294
6      1         -0.7398105902598755     1.0409931202138629    12.3330624406960840
7      1          1.0323096107584313    -0.2062314755818491    15.1000810937189751
8      1         -2.1184539817650947     4.8524937174493568     1.5840599514753302
9      1         -0.2523025851269269     3.6100086965518736     4.1378587724351581
10     1         -2.1865760010038771     4.5789637050274461     6.8512022216173696
11     1         -0.6219091135608398     3.4158735241897253     9.4319253832157361
12     1         -2.5236854938669446     4.0318351458877624    12.3234537182465136
13     1         -0.8459862772762158     2.8269465405126311    15.1496313896274373
14     1         -4.1010108799254281     7.9515845925894322     1.4262683020393006
15     1         -2.3929509702676874     6.8256110872030273     4.2444745781327393
16     1         -4.1684636189311792     7.5004436690468044     7.1388642200157664
17     1         -2.3603393539209474     6.2120278197410874     9.6137682871059535
18     1         -4.5506172777497627     7.0583856814026822    12.4736402025385686
19     1         -2.7620488457244976     5.8761337397812028    14.9867542812687482
20     1          3.5522739065297255     1.9591931283615165     1.2776645316423145
21     1          5.0809977683380891     0.7509613343663509     4.2794581236253402
22     1          3.0890698760669553     1.3798416708344370     7.0726997116025530
23     1          5.0791933888298386     0.1947284223607064     9.5507841983601001
24     1          2.8302426118042603     1.1071308574177559    12.5688364811880895
25     1          4.6287495875779365    -0.1071576549742427    15.0794201452132288
26     1          1.6023104202937941     4.9408611960252191     1.4569256201055913
27     1          3.1854997720419984     3.5812756930115919     4.1398152124123531
28     1          1.3333529304239482     4.4342931607039340     6.9833588318557700
29     1          3.0138095815747628     3.2578023833283822     9.7130295061788079
30     1          0.8931335894360066     4.1173627345788306    12.5799754459624644
31     1          2.8610316442204113     2.8981643823973195    15.3869720812889224
32     1         -0.1823205022645063     7.8622629881133603     1.2122185624872819
33     1          1.2878225993071590     6.6365934992147242     3.9274456339573338
34     1         -0.6268135991084877     7.4765873089964767     6.8483462690069814
35     1          0.9003243362596870     6.3880934966597831     9.4216505930782510
36     1         -0.8286021247913870     7.1825366292056625    12.3503737754915601
37     1          0.7618957671015110     5.9388447621919802    15.2659030351029958
38     1          6.8231984658189990     2.0072881413312782     1.3358105274396364
39     1          8.8059149203868863     0.6185166659156546     4.0896320451155361
40     1          6.6758711466824483     1.5769698643986978     6.8910013722426715
41     1          8.6185539348313807     0.2466945521983173     9.5980867835339527
42     1          6.5436802692961171     1.1372495387525039    12.4222630393060260
43     1          8.2056936989213547    -0.1818054241971660    15.0682672594100069
44     1          5.1270335398868632     4.7889163787049451     1.3413564511626206
45     1          6.6896176272447088     3.7387225292715645     4.3009671840423822
46     1          4.8517205649241593     4.5663351901664386     7.0425960221450241
47     1          6.4712673606273290     3.1947668938606322     9.5813601319500545
48     1          4.4248857577484557     4.2268655474896120    12.1769477398119381
49     1          6.3308416592537897     2.8801634212497298    15.3943309513071398
50     1          3.3305215546318045     7.7938122184241134     1.4658029531165087
51     1          4.8297863777030958     6.6251247131415116     4.0000791373909292
52     1          2.8832067723253667     7.5287215620286245     6.7674393910447561
53     1          4.7270652475375661     6.3154749851034087     9.4633419327783770
54     1          2.5493976341474189     7.2038615037025755    12.1933327907648970
55     1          4.3017435491126985     5.8171631907367871    15.2304633082035643
ITEM: TIMESTEP energy, energy_weight, force_weight, nsims
5        -211471.0119574295240454    1    1   88
ITEM: NUMBER OF ATOMS
55        
ITEM: BOX BOUNDS xy xz yz pp pp pp
   -6.1594234642732584     10.7084837284888987     -5.6381130594029623
   -0.9360285627072141      9.1040209029656793     -0.5213104048702960
    0.0000000000000000     16.5666668369960348     -0.9360285627072141
ITEM: ATOMS id type x y z
1      1          0.1182216603625174     1.8095774062521881     1.3864488052949147
2      1          2.3394717316792413     3.0354053807100061     2.7687384355096842
3      1          1.7302768008492362     0.7102101995375865     3.9990350602274010
4      1         -0.2450368789171472     1.6244619897345460     6.9361065765554395
5      1          1.4935379259732950     0.3891655739639979     9.7275148721183342
6      1         -0.2959846319521788     1.2696984905966917    12.3472029934595557
7      1          1.3597075797281322     0.1839663962135751    15.0481042553976359
8      1         -1.8388918804589265     4.8702301790488525     1.5998399730976316
9      1         -0.1685065582547556     3.8994611534296739     4.2936308018399947
10     1         -2.1204093508939166     4.7780590470526301     6.7079334178139165
11     1         -0.4296564926381601     3.5362754318393632     9.6425858876676891
12     1         -2.3691684987550867     4.3669678526545512    12.5174903725583579
13     1         -0.5722635121471924     3.2607589956858183    15.1778268272845498
14     1         -3.8913066430704299     8.0148738731215463     1.1774995165427751
15     1         -2.1970553231805758     6.9156266014247052     4.2529621223359397
16     1         -3.9256198374816269     7.6512608830304698     6.7048440202582471
17     1         -2.1596666522425569     6.4542997681595384     9.8880586018725865
18     1         -4.2234870208732742     7.2794998076703843    12.2271127026864175
19     1         -2.4299005933728384     6.2953355397552393    15.0433421926835766
20     1          3.5344035888836238     1.8788409498564271     1.4601338818306469
21     1          5.3528304860890348     0.6963887595892259     3.9773460972837196
22     1          3.3660201781917456     1.7438690792458071     6.8383616787785391
23     1          5.0622986140514028     0.5341680812830932     9.8987103306373143
24     1          3.1678554034025668     1.3844131225381291    12.4970093265792510
25     1          4.9007290115559616     0.0567913726056680    15.2204904973072228
26     1          1.5143048884679535     4.9300359898240904     1.5420302236893844
27     1          3.2978210578701179     3.8146156951521109     3.9869591031267837
28     1          1.5133400540840167     4.5481693183694301     6.8766659250753426
29     1          3.0919547415834105     3.4140680738331026     9.6740281375912787
30     1          1.2872015072509067     4.2489635745117216    12.5488469546121202
31     1          3.0951555073698560     3.1705132490639776    15.0550347860667131
32     1         -0.2249167088396894     7.9039393359362666     1.3147223104331232
33     1          1.4574203520538476     6.8899358781116860     4.2731765270702082
34     1         -0.6414852926648903     7.7114264988589847     7.0613497896987276
35     1          1.3683964434254281     6.4210895475723762     9.8484147242613478
36     1         -0.6886015502218686     7.4935013590456245    12.4072893665084791
37     1          1.2153507939778647     6.1365330094552411    15.1120788788883722
38     1          6.9632472285652947     2.0298841128467626     1.4545140695699359
39     1          8.7886164357718854     0.7756315391800436     4.1847265931696356
40     1          6.7812822479605739     1.5893938472204905     6.8290292352091599
41     1          8.5741083731162870     0.3730493059526221     9.8355859607546172
42     1          6.7202160486504932     1.4313987365936196    12.4567829074531815
43     1          8.2859462885277679     0.1958399629717235    15.4026503723158026
44     1          5.2646557602202844     5.0428166696041625     1.3343745197716461
45     1          6.7421245355106096     3.8555917081391735     4.0812376647207733
46     1          4.8192877802556850     4.7549822646177367     6.6705201173633224
47     1          6.8109329685563864     3.4379212213383115     9.4261395894572342
48     1          4.9297886238499622     4.3679915836989949    12.3142722642977045
49     1          6.4033969907561668     3.2108060607891629    15.3805330700229810
50     1          3.3299914846872447     8.1392839662307583     1.3749072015323496
51     1          5.0985307687467447     6.9113003739983947     4.0466235619168058
52     1          3.1346687414796066     7.5931545086229431     6.6893370649710233
53     1          4.7794254495763848     6.4485118327042903     9.6897728212172751
54     1          2.9516393375922747     7.5125142719055571    12.3572325593196570
55     1          4.7365347596986682     6.1683618356414271    15.0417766123624705
ITEM: TIMESTEP energy, energy_weight, force_weight, nsims
6        -211473.1104292774689384    1    1   88
ITEM: NUMBER OF ATOMS
55        
ITEM: BOX BOUNDS xy xz yz pp pp pp
   -5.8885737853285880     10.7084837284888987     -5.5410406544042097
   -0.6162839470582625      9.1634315706913370     -0.3475331309243785
    0.0000000000000000     16.5861884028330770     -0.6162839470582625
ITEM: ATOMS id type x y z
1      1         -0.1661528335312338     1.9544332073442030     1.5826678485906267
2      1          2.3792473236403402     3.1040553281966026     2.5517995470477191
3      1          1.6405097234500596     0.9186658271898428     4.2185975272028458
4      1         -0.2756770634094725     1.7756443630133525     6.7700447651358981
5      1          1.3607859240395912     0.7620938740504880     9.8243795325327525
6      1         -0.1837447306003953     1.6044585421297288    12.4110426900553144
7      1          1.3346272399876384     0.3930302657416095    15.3389166897089542
8      1         -1.8404927987763355     4.9677330650934897     1.3473649813826758
9      1          0.0070526073835828     3.7872448107420928     4.3695882186229120
10     1         -2.1176144366407814     4.8755694290358766     6.8739481119050527
11     1         -0.1625173033054118     3.7384151957885572     9.8526906218141335
12     1         -2.0918091325518686     4.6590942179193551    12.4015549734718746
13     1         -0.5338478976196114     3.6046812258969503    15.0525857558380078
14     1         -3.9957325638455350     8.2275946898428600     1.3194072720643371
15     1         -1.9571595873014762     6.9735926946953875     4.3745184045315080
16     1         -3.9531245779382505     7.8387321659683789     6.9987469229736083
17     1         -2.1605597397855130     6.8737050293244151     9.6772053447135207
18     1         -4.2105950773125462     7.7665077266132121    12.5636053868867243
19     1         -2.3442434320286556     6.4823302951672304    15.3370384216629763
20     1          3.5018273105331872     2.0772980662513931     1.5581700503649627
21     1          5.2920512741428771     0.9870362832511258     4.2669591814174481
22     1          3.5919906018303180     1.6621151602206590     6.8454614034905266
23     1          5.2301872927950237     0.7559643379643010     9.4806468424836154
24     1          3.1804892725054383     1.6890491384945541    12.4088806471905322
25     1          5.0307589169258833     0.4742905236668747    15.1972680794936217
26     1          1.8575117919660227     4.9342219361135564     1.4252456418432298
27     1          3.2485866622316451     3.9775923924094752     4.3839493661511888
28     1          1.6698316935954078     4.7865830001005074     6.6712611444373335
29     1          3.1087210145571058     3.7590375937528808     9.8253615004906560
30     1          1.5738451288467248     4.6225590131344969    12.4727010685155815
31     1          3.0419932398997731     3.5328733465588225    15.2821542300093522
32     1         -0.3388067875340331     8.1136232266721802     1.2229131251869236
33     1          1.4952566376117176     6.8613463682533675     4.2444510194685368
34     1         -0.3580670663680933     7.9200780917634725     7.0082517731310157
35     1          1.3236381939854629     6.7705427096292725     9.7767224965474870
36     1         -0.3972590459659898     7.6427230089537455    12.2230723917756574
37     1          1.3859412231661843     6.4940924936946036    15.3286161992105203
38     1          6.9570170327320593     1.9442944149500696     1.4260070150363255
39     1          8.8402388232818119     0.7803272092949861     4.1482609935290125
40     1          6.9056334444092782     1.8210697509896023     6.9333266541795240
41     1          8.8277505895576489     0.5950029773446386     9.8779797769873330
42     1          6.6156091545003761     1.6809995712758488    12.4531505897724770
43     1          8.5220630004990845     0.4002777675290508    15.1025226280090692
44     1          5.1519746693388875     5.0628308256927079     1.4867562432280430
45     1          6.9805564216640237     3.8403845903963467     4.3718627005668438
46     1          5.0705634217930502     4.7712420263110742     6.7724177651301307
47     1          6.9875886829285223     3.5823154867816287     9.6989681961949294
48     1          4.9010834623673745     4.7297455810148072    12.5719397997726059
49     1          6.8427885659518957     3.4192809637121302    15.0710418275440574
50     1          3.2442925602565205     8.2050308437785606     1.5832696653761680
51     1          5.1829778714296078     6.9401683044336551     4.1096740432617755
52     1          3.4455135363018101     7.8190521145721616     7.1291302083065702
53     1          5.0592327751599360     6.7416758500423848     9.9010704804510734
54     1          3.0347189669030099     7.6660128902148355    12.5253739582792729
55     1          5.1135569131145600     6.4370301964506043    15.0640877382107785
ITEM: TIMESTEP energy, energy_weight, force_weight, nsims
7        -211482.3994053403439466    1    1   88